
     Program PWSCF v.6.7MaX starts on 11Nov2022 at 21:56:15 

     This program is part of the open-source Quantum ESPRESSO suite
     for quantum simulation of materials; please cite
         "P. Giannozzi et al., J. Phys.:Condens. Matter 21 395502 (2009);
         "P. Giannozzi et al., J. Phys.:Condens. Matter 29 465901 (2017);
          URL http://www.quantum-espresso.org", 
     in publications or presentations arising from this work. More details at
     http://www.quantum-espresso.org/quote

     Parallel version (MPI), running on     1 processors

     MPI processes distributed on     1 nodes
     Waiting for input...
     Reading input from standard input
     Message from routine read_cards :
     DEPRECATED: no units specified in ATOMIC_POSITIONS card
     Message from routine read_cards :
     ATOMIC_POSITIONS: units set to alat

     Current dimensions of program PWSCF are:
     Max number of different atomic species (ntypx) = 10
     Max number of k-points (npk) =  40000
     Max angular momentum in pseudopotentials (lmaxx) =  3
     file Na.pbe-spn-kjpaw_psl.1.0.0.UPF: wavefunction(s)  2P renormalized
     file Cl.pbe-n-kjpaw_psl.1.0.0.UPF: wavefunction(s)  3S 3P renormalized

     Subspace diagonalization in iterative solution of the eigenvalue problem:
     a serial algorithm will be used


     G-vector sticks info
     --------------------
     sticks:   dense  smooth     PW     G-vecs:    dense   smooth      PW
     Sum        1069    1039    313                22995    22227    3695



     bravais-lattice index     =            2
     lattice parameter (alat)  =      11.2600  a.u.
     unit-cell volume          =     356.9071 (a.u.)^3
     number of atoms/cell      =            2
     number of atomic types    =            2
     number of electrons       =        16.00
     number of Kohn-Sham states=            8
     kinetic-energy cutoff     =      60.0000  Ry
     charge density cutoff     =     244.0000  Ry
     scf convergence threshold =      1.0E-08
     mixing beta               =       0.7000
     number of iterations used =            8  plain     mixing
     energy convergence thresh.=      1.0E-04
     force convergence thresh. =      1.0E-03
     press convergence thresh. =      5.0E-01
     Exchange-correlation= SLA  PW   PBX  PBC
                           (   1   4   3   4   0   0   0)
     nstep                     =           50


     celldm(1)=  11.260000  celldm(2)=   0.000000  celldm(3)=   0.000000
     celldm(4)=   0.000000  celldm(5)=   0.000000  celldm(6)=   0.000000

     crystal axes: (cart. coord. in units of alat)
               a(1) = (  -0.500000   0.000000   0.500000 )  
               a(2) = (   0.000000   0.500000   0.500000 )  
               a(3) = (  -0.500000   0.500000   0.000000 )  

     reciprocal axes: (cart. coord. in units 2 pi/alat)
               b(1) = ( -1.000000 -1.000000  1.000000 )  
               b(2) = (  1.000000  1.000000  1.000000 )  
               b(3) = ( -1.000000  1.000000 -1.000000 )  


     PseudoPot. # 1 for Na read from file:
     ../../pseudopotentials/Na.pbe-spn-kjpaw_psl.1.0.0.UPF
     MD5 check sum: 2d3bf706d6c1b56787a12f8ec1fa0108
     Pseudo is Projector augmented-wave + core cor, Zval =  9.0
     Generated using &quot;atomic&quot; code by A. Dal Corso  v.6.3
     Shape of augmentation charge: PSQ
     Using radial grid of 1121 points,  4 beta functions with: 
                l(1) =   0
                l(2) =   0
                l(3) =   1
                l(4) =   1
     Q(r) pseudized with 0 coefficients 


     PseudoPot. # 2 for Cl read from file:
     ../../pseudopotentials/Cl.pbe-n-kjpaw_psl.1.0.0.UPF
     MD5 check sum: 742572be94a3d2fc30b29275f2c5bbd2
     Pseudo is Projector augmented-wave + core cor, Zval =  7.0
     Generated using &quot;atomic&quot; code by A. Dal Corso  v.6.3
     Shape of augmentation charge: PSQ
     Using radial grid of 1157 points,  6 beta functions with: 
                l(1) =   0
                l(2) =   0
                l(3) =   1
                l(4) =   1
                l(5) =   2
                l(6) =   2
     Q(r) pseudized with 0 coefficients 


     atomic species   valence    mass     pseudopotential
        Na             9.00    22.98977     Na( 1.00)
        Cl             7.00    35.45320     Cl( 1.00)

     24 Sym. Ops. (no inversion) found



   Cartesian axes

     site n.     atom                  positions (alat units)
         1           Na  tau(   1) = (   0.0000000   0.0000000   0.0000000  )
         2           Cl  tau(   2) = (   0.2500000   0.2500000   0.2500000  )

     number of k points=    20
                       cart. coord. in units 2pi/alat
        k(    1) = (   0.0000000   0.0000000   0.0000000), wk =   0.0058309
        k(    2) = (  -0.1428571   0.1428571  -0.1428571), wk =   0.0466472
        k(    3) = (  -0.2857143   0.2857143  -0.2857143), wk =   0.0466472
        k(    4) = (  -0.4285714   0.4285714  -0.4285714), wk =   0.0466472
        k(    5) = (   0.0000000   0.2857143   0.0000000), wk =   0.0349854
        k(    6) = (  -0.1428571   0.4285714  -0.1428571), wk =   0.1399417
        k(    7) = (  -0.2857143   0.5714286  -0.2857143), wk =   0.1399417
        k(    8) = (   0.5714286  -0.2857143   0.5714286), wk =   0.1399417
        k(    9) = (   0.4285714  -0.1428571   0.4285714), wk =   0.1399417
        k(   10) = (   0.2857143  -0.0000000   0.2857143), wk =   0.0699708
        k(   11) = (   0.0000000   0.5714286   0.0000000), wk =   0.0349854
        k(   12) = (  -0.1428571   0.7142857  -0.1428571), wk =   0.1399417
        k(   13) = (   0.7142857  -0.1428571   0.7142857), wk =   0.1399417
        k(   14) = (   0.5714286   0.0000000   0.5714286), wk =   0.0699708
        k(   15) = (   0.0000000   0.8571429   0.0000000), wk =   0.0349854
        k(   16) = (   0.8571429  -0.0000000   0.8571429), wk =   0.0699708
        k(   17) = (  -0.2857143   0.5714286   0.0000000), wk =   0.1399417
        k(   18) = (   0.5714286  -0.2857143   0.8571429), wk =   0.2798834
        k(   19) = (   0.7142857  -0.1428571   1.0000000), wk =   0.1399417
        k(   20) = (   0.5714286   0.0000000   0.8571429), wk =   0.1399417

     Dense  grid:    22995 G-vectors     FFT dimensions: (  40,  40,  40)

     Smooth grid:    22227 G-vectors     FFT dimensions: (  40,  40,  40)

     Estimated max dynamical RAM per process >      98.49 MB

     Check: negative core charge=   -0.000006

     Initial potential from superposition of free atoms

     starting charge   15.99370, renormalised to   16.00000
     Starting wfcs are    9 randomized atomic wfcs
     Checking if some PAW data can be deallocated... 

     total cpu time spent up to now is        6.1 secs

     Self-consistent Calculation

     iteration #  1     ecut=    60.00 Ry     beta= 0.70
     Davidson diagonalization with overlap
     ethr =  1.00E-02,  avg # of iterations =  1.0

     Threshold (ethr) on eigenvalues was too large:
     Diagonalizing with lowered threshold

     Davidson diagonalization with overlap
     ethr =  5.63E-04,  avg # of iterations =  2.0

     total cpu time spent up to now is        9.7 secs

     total energy              =    -188.79960093 Ry
     estimated scf accuracy    <       0.07736453 Ry

     iteration #  2     ecut=    60.00 Ry     beta= 0.70
     Davidson diagonalization with overlap
     ethr =  4.84E-04,  avg # of iterations =  2.4

     total cpu time spent up to now is       11.9 secs

     total energy              =    -188.82518461 Ry
     estimated scf accuracy    <       0.01637273 Ry

     iteration #  3     ecut=    60.00 Ry     beta= 0.70
     Davidson diagonalization with overlap
     ethr =  1.02E-04,  avg # of iterations =  2.0

     total cpu time spent up to now is       14.1 secs

     total energy              =    -188.82805079 Ry
     estimated scf accuracy    <       0.00068744 Ry

     iteration #  4     ecut=    60.00 Ry     beta= 0.70
     Davidson diagonalization with overlap
     ethr =  4.30E-06,  avg # of iterations =  5.2

     total cpu time spent up to now is       17.0 secs

     total energy              =    -188.82865088 Ry
     estimated scf accuracy    <       0.00063892 Ry

     iteration #  5     ecut=    60.00 Ry     beta= 0.70
     Davidson diagonalization with overlap
     ethr =  3.99E-06,  avg # of iterations =  2.0

     total cpu time spent up to now is       19.2 secs

     total energy              =    -188.82875693 Ry
     estimated scf accuracy    <       0.00001179 Ry

     iteration #  6     ecut=    60.00 Ry     beta= 0.70
     Davidson diagonalization with overlap
     ethr =  7.37E-08,  avg # of iterations =  5.7

     total cpu time spent up to now is       22.3 secs

     total energy              =    -188.82876722 Ry
     estimated scf accuracy    <       0.00000271 Ry

     iteration #  7     ecut=    60.00 Ry     beta= 0.70
     Davidson diagonalization with overlap
     ethr =  1.69E-08,  avg # of iterations =  2.2

     total cpu time spent up to now is       24.5 secs

     total energy              =    -188.82876768 Ry
     estimated scf accuracy    <       0.00000016 Ry

     iteration #  8     ecut=    60.00 Ry     beta= 0.70
     Davidson diagonalization with overlap
     ethr =  9.73E-10,  avg # of iterations =  4.8

     total cpu time spent up to now is       27.2 secs

     total energy              =    -188.82876776 Ry
     estimated scf accuracy    <       0.00000002 Ry

     iteration #  9     ecut=    60.00 Ry     beta= 0.70
     Davidson diagonalization with overlap
     ethr =  1.07E-10,  avg # of iterations =  3.6

     total cpu time spent up to now is       29.2 secs

     End of self-consistent calculation

          k = 0.0000 0.0000 0.0000 (  2741 PWs)   bands (ev):

   -48.9561 -20.8814 -20.8814 -20.8814 -12.7664  -0.5159  -0.5159  -0.5159

          k =-0.1429 0.1429-0.1429 (  2785 PWs)   bands (ev):

   -48.9562 -20.8866 -20.8823 -20.8823 -12.7291  -0.8079  -0.5360  -0.5360

          k =-0.2857 0.2857-0.2857 (  2803 PWs)   bands (ev):

   -48.9560 -20.8973 -20.8836 -20.8836 -12.6440  -1.3496  -0.5802  -0.5802

          k =-0.4286 0.4286-0.4286 (  2821 PWs)   bands (ev):

   -48.9559 -20.9056 -20.8847 -20.8847 -12.5746  -1.7137  -0.6148  -0.6148

          k = 0.0000 0.2857 0.0000 (  2794 PWs)   bands (ev):

   -48.9562 -20.8872 -20.8831 -20.8831 -12.7167  -0.8149  -0.5845  -0.5845

          k =-0.1429 0.4286-0.1429 (  2810 PWs)   bands (ev):

   -48.9561 -20.8954 -20.8845 -20.8843 -12.6478  -1.2098  -0.6455  -0.6428

          k =-0.2857 0.5714-0.2857 (  2800 PWs)   bands (ev):

   -48.9559 -20.9033 -20.8860 -20.8853 -12.5731  -1.5747  -0.7365  -0.6735

          k = 0.5714-0.2857 0.5714 (  2806 PWs)   bands (ev):

   -48.9558 -20.9058 -20.8872 -20.8852 -12.5497  -1.6720  -0.8084  -0.6490

          k = 0.4286-0.1429 0.4286 (  2801 PWs)   bands (ev):

   -48.9559 -20.9006 -20.8866 -20.8841 -12.5960  -1.4648  -0.7931  -0.5893

          k = 0.2857-0.0000 0.2857 (  2798 PWs)   bands (ev):

   -48.9561 -20.8924 -20.8845 -20.8827 -12.6759  -1.0881  -0.6727  -0.5383

          k = 0.0000 0.5714 0.0000 (  2810 PWs)   bands (ev):

   -48.9560 -20.8986 -20.8860 -20.8860 -12.6043  -1.3160  -0.7323  -0.7323

          k =-0.1429 0.7143-0.1429 (  2807 PWs)   bands (ev):

   -48.9558 -20.9039 -20.8880 -20.8870 -12.5459  -1.5019  -0.8716  -0.7764

          k = 0.7143-0.1429 0.7143 (  2803 PWs)   bands (ev):

   -48.9558 -20.9056 -20.8906 -20.8868 -12.5168  -1.4933  -1.1155  -0.7474

          k = 0.5714 0.0000 0.5714 (  2806 PWs)   bands (ev):

   -48.9558 -20.9036 -20.8906 -20.8856 -12.5394  -1.4324  -1.1342  -0.6651

          k = 0.0000 0.8571 0.0000 (  2798 PWs)   bands (ev):

   -48.9557 -20.9073 -20.8880 -20.8880 -12.5133  -1.6154  -0.8452  -0.8452

          k = 0.8571-0.0000 0.8571 (  2806 PWs)   bands (ev):

   -48.9557 -20.9078 -20.8896 -20.8880 -12.5003  -1.5846  -0.9915  -0.8328

          k =-0.2857 0.5714 0.0000 (  2801 PWs)   bands (ev):

   -48.9559 -20.9005 -20.8876 -20.8851 -12.5841  -1.4001  -0.8618  -0.6690

          k = 0.5714-0.2857 0.8571 (  2791 PWs)   bands (ev):

   -48.9558 -20.9046 -20.8896 -20.8862 -12.5324  -1.5127  -1.0201  -0.7335

          k = 0.7143-0.1429 1.0000 (  2797 PWs)   bands (ev):

   -48.9557 -20.9061 -20.8898 -20.8879 -12.5103  -1.5129  -1.0056  -0.8613

          k = 0.5714 0.0000 0.8571 (  2791 PWs)   bands (ev):

   -48.9557 -20.9055 -20.8914 -20.8875 -12.5044  -1.3451  -1.2580  -0.8441

     highest occupied level (ev):    -0.5159

!    total energy              =    -188.82876777 Ry

     total all-electron energy =     -1248.115783 Ry
     estimated scf accuracy    <          2.5E-09 Ry

     The total energy is the sum of the following terms:
     one-electron contribution =     -93.35347299 Ry
     hartree contribution      =      52.73835671 Ry
     xc contribution           =     -25.70323379 Ry
     ewald contribution        =     -61.90728259 Ry
     one-center paw contrib.   =     -60.60313511 Ry

     convergence has been achieved in   9 iterations

     Forces acting on atoms (cartesian axes, Ry/au):

     atom    1 type  1   force =     0.00000000    0.00000000    0.00000000
     atom    2 type  2   force =     0.00000000    0.00000000    0.00000000

     Total force =     0.000000     Total SCF correction =     0.000000


     Computing stress (Cartesian axis) and pressure

          total   stress  (Ry/bohr**3)                   (kbar)     P=       27.95
   0.00019000   0.00000000   0.00000000           27.95        0.00        0.00
   0.00000000   0.00019000  -0.00000000            0.00       27.95       -0.00
   0.00000000  -0.00000000   0.00019000            0.00       -0.00       27.95


     BFGS Geometry Optimization
     Energy error            =      0.0E+00
     Gradient error          =      0.0E+00
     Cell gradient error     =      1.9E-04


     number of scf cycles    =   1
     number of bfgs steps    =   0

     enthalpy new            =    -188.8287677722 Ry

     new trust radius        =       0.0179475754 bohr
ibrav =      2
 celldm(1) =     11.31348557
Input lattice vectors:
    -0.50237503    -0.00000000     0.50237503
     0.00000000     0.50237503     0.50237503
    -0.50237503     0.50237503    -0.00000000
New lattice vectors in INITIAL alat:
    -0.50237503     0.00000000     0.50237503
     0.00000000     0.50237503     0.50237503
    -0.50237503     0.50237503     0.00000000
New lattice vectors in NEW alat (for information only):
    -0.50000000     0.00000000     0.50000000
     0.00000000     0.50000000     0.50000000
    -0.50000000     0.50000000     0.00000000
Discrepancy in bohr =     0.000000    0.000000    0.000000
     new conv_thr            =       0.0000000100 Ry

     new unit-cell volume =    362.01727 a.u.^3 (    53.64542 Ang^3 )
     density =      1.80904 g/cm^3

CELL_PARAMETERS (alat= 11.26000000)
  -0.502375025   0.000000000   0.502375025
   0.000000000   0.502375025   0.502375025
  -0.502375025   0.502375025   0.000000000

ATOMIC_POSITIONS (alat)
Na            0.0000000000        0.0000000000        0.0000000000
Cl            0.2511875126        0.2511875126        0.2511875126



     Writing output data file ./tmp/NaCl.save/
     NEW-OLD atomic charge density approx. for the potential

     Check: negative core charge=   -0.000006
     extrapolated charge   16.22576, renormalised to   16.00000

     total cpu time spent up to now is       39.5 secs

     Self-consistent Calculation

     iteration #  1     ecut=    60.00 Ry     beta= 0.70
     Davidson diagonalization with overlap
     ethr =  1.00E-06,  avg # of iterations =  7.0

     total cpu time spent up to now is       42.7 secs

     total energy              =    -188.81541366 Ry
     estimated scf accuracy    <       0.00823586 Ry

     iteration #  2     ecut=    60.00 Ry     beta= 0.70
     Davidson diagonalization with overlap
     ethr =  5.15E-05,  avg # of iterations =  5.0

     total cpu time spent up to now is       45.2 secs

     total energy              =    -188.83001307 Ry
     estimated scf accuracy    <       0.01506041 Ry

     iteration #  3     ecut=    60.00 Ry     beta= 0.70
     Davidson diagonalization with overlap
     ethr =  5.15E-05,  avg # of iterations =  2.0

     total cpu time spent up to now is       46.9 secs

     total energy              =    -188.82968161 Ry
     estimated scf accuracy    <       0.00422219 Ry

     iteration #  4     ecut=    60.00 Ry     beta= 0.70
     Davidson diagonalization with overlap
     ethr =  2.64E-05,  avg # of iterations =  2.0

     total cpu time spent up to now is       48.6 secs

     total energy              =    -188.82952242 Ry
     estimated scf accuracy    <       0.00164067 Ry

     iteration #  5     ecut=    60.00 Ry     beta= 0.70
     Davidson diagonalization with overlap
     ethr =  1.03E-05,  avg # of iterations =  2.0

     total cpu time spent up to now is       50.3 secs

     total energy              =    -188.82971918 Ry
     estimated scf accuracy    <       0.00048935 Ry

     iteration #  6     ecut=    60.00 Ry     beta= 0.70
     Davidson diagonalization with overlap
     ethr =  3.06E-06,  avg # of iterations =  2.0

     total cpu time spent up to now is       51.9 secs

     total energy              =    -188.82973867 Ry
     estimated scf accuracy    <       0.00030510 Ry

     iteration #  7     ecut=    60.00 Ry     beta= 0.70
     Davidson diagonalization with overlap
     ethr =  1.91E-06,  avg # of iterations =  1.0

     total cpu time spent up to now is       53.4 secs

     total energy              =    -188.82970128 Ry
     estimated scf accuracy    <       0.00020689 Ry

     iteration #  8     ecut=    60.00 Ry     beta= 0.70
     Davidson diagonalization with overlap
     ethr =  1.29E-06,  avg # of iterations =  1.2

     total cpu time spent up to now is       54.9 secs

     total energy              =    -188.82964796 Ry
     estimated scf accuracy    <       0.00009938 Ry

     iteration #  9     ecut=    60.00 Ry     beta= 0.70
     Davidson diagonalization with overlap
     ethr =  6.21E-07,  avg # of iterations =  2.3

     total cpu time spent up to now is       56.6 secs

     total energy              =    -188.82966391 Ry
     estimated scf accuracy    <       0.00001108 Ry

     iteration # 10     ecut=    60.00 Ry     beta= 0.70
     Davidson diagonalization with overlap
     ethr =  6.92E-08,  avg # of iterations =  4.0

     total cpu time spent up to now is       58.6 secs

     total energy              =    -188.82966494 Ry
     estimated scf accuracy    <       0.00000270 Ry

     iteration # 11     ecut=    60.00 Ry     beta= 0.70
     Davidson diagonalization with overlap
     ethr =  1.69E-08,  avg # of iterations =  5.0

     total cpu time spent up to now is       61.1 secs

     total energy              =    -188.82967360 Ry
     estimated scf accuracy    <       0.00000380 Ry

     iteration # 12     ecut=    60.00 Ry     beta= 0.70
     Davidson diagonalization with overlap
     ethr =  1.69E-08,  avg # of iterations =  4.0

     total cpu time spent up to now is       63.2 secs

     total energy              =    -188.82967394 Ry
     estimated scf accuracy    <       0.00001848 Ry

     iteration # 13     ecut=    60.00 Ry     beta= 0.70
     Davidson diagonalization with overlap
     ethr =  1.69E-08,  avg # of iterations =  1.0

     total cpu time spent up to now is       64.6 secs

     total energy              =    -188.82967942 Ry
     estimated scf accuracy    <       0.00001678 Ry

     iteration # 14     ecut=    60.00 Ry     beta= 0.70
     Davidson diagonalization with overlap
     ethr =  1.69E-08,  avg # of iterations =  2.0

     total cpu time spent up to now is       66.3 secs

     total energy              =    -188.82967684 Ry
     estimated scf accuracy    <       0.00002792 Ry

     iteration # 15     ecut=    60.00 Ry     beta= 0.70
     Davidson diagonalization with overlap
     ethr =  1.69E-08,  avg # of iterations =  1.0

     total cpu time spent up to now is       67.8 secs

     total energy              =    -188.82968476 Ry
     estimated scf accuracy    <       0.00002360 Ry

     iteration # 16     ecut=    60.00 Ry     beta= 0.70
     Davidson diagonalization with overlap
     ethr =  1.69E-08,  avg # of iterations =  2.0

     total cpu time spent up to now is       69.5 secs

     total energy              =    -188.82968767 Ry
     estimated scf accuracy    <       0.00003984 Ry

     iteration # 17     ecut=    60.00 Ry     beta= 0.70
     Davidson diagonalization with overlap
     ethr =  1.69E-08,  avg # of iterations =  1.3

     total cpu time spent up to now is       71.0 secs

     total energy              =    -188.82968559 Ry
     estimated scf accuracy    <       0.00004619 Ry

     iteration # 18     ecut=    60.00 Ry     beta= 0.70
     Davidson diagonalization with overlap
     ethr =  1.69E-08,  avg # of iterations =  1.0

     total cpu time spent up to now is       72.5 secs

     total energy              =    -188.82965766 Ry
     estimated scf accuracy    <       0.00004242 Ry

     iteration # 19     ecut=    60.00 Ry     beta= 0.70
     Davidson diagonalization with overlap
     ethr =  1.69E-08,  avg # of iterations =  4.9

     total cpu time spent up to now is       75.0 secs

     total energy              =    -188.82966662 Ry
     estimated scf accuracy    <       0.00000004 Ry

     iteration # 20     ecut=    60.00 Ry     beta= 0.70
     Davidson diagonalization with overlap
     ethr =  2.32E-10,  avg # of iterations =  2.9

     total cpu time spent up to now is       76.9 secs

     total energy              =    -188.82966658 Ry
     estimated scf accuracy    <       0.00000009 Ry

     iteration # 21     ecut=    60.00 Ry     beta= 0.70
     Davidson diagonalization with overlap
     ethr =  2.32E-10,  avg # of iterations =  3.2

     total cpu time spent up to now is       78.8 secs

     End of self-consistent calculation

          k = 0.0000 0.0000 0.0000 (  2741 PWs)   bands (ev):

   -49.0682 -20.9933 -20.9933 -20.9933 -12.8309  -0.5996  -0.5996  -0.5996

          k =-0.1422 0.1422-0.1422 (  2785 PWs)   bands (ev):

   -49.0683 -20.9982 -20.9941 -20.9941 -12.7953  -0.8850  -0.6194  -0.6194

          k =-0.2844 0.2844-0.2844 (  2803 PWs)   bands (ev):

   -49.0681 -21.0081 -20.9953 -20.9953 -12.7139  -1.4153  -0.6630  -0.6630

          k =-0.4265 0.4265-0.4265 (  2821 PWs)   bands (ev):

   -49.0681 -21.0159 -20.9964 -20.9964 -12.6475  -1.7717  -0.6971  -0.6971

          k = 0.0000 0.2844 0.0000 (  2794 PWs)   bands (ev):

   -49.0683 -20.9987 -20.9949 -20.9949 -12.7835  -0.8919  -0.6669  -0.6669

          k =-0.1422 0.4265-0.1422 (  2810 PWs)   bands (ev):

   -49.0682 -21.0064 -20.9962 -20.9960 -12.7175  -1.2784  -0.7268  -0.7241

          k =-0.2844 0.5687-0.2844 (  2800 PWs)   bands (ev):

   -49.0680 -21.0137 -20.9976 -20.9970 -12.6461  -1.6357  -0.8159  -0.7545

          k = 0.5687-0.2844 0.5687 (  2806 PWs)   bands (ev):

   -49.0680 -21.0160 -20.9988 -20.9968 -12.6238  -1.7310  -0.8862  -0.7306

          k = 0.4265-0.1422 0.4265 (  2801 PWs)   bands (ev):

   -49.0680 -21.0112 -20.9982 -20.9958 -12.6680  -1.5281  -0.8711  -0.6721

          k = 0.2844-0.0000 0.2844 (  2798 PWs)   bands (ev):

   -49.0682 -21.0036 -20.9962 -20.9945 -12.7444  -1.1593  -0.7532  -0.6219

          k = 0.0000 0.5687 0.0000 (  2810 PWs)   bands (ev):

   -49.0681 -21.0094 -20.9976 -20.9976 -12.6759  -1.3824  -0.8120  -0.8120

          k =-0.1422 0.7109-0.1422 (  2807 PWs)   bands (ev):

   -49.0680 -21.0143 -20.9995 -20.9986 -12.6201  -1.5644  -0.9482  -0.8553

          k = 0.7109-0.1422 0.7109 (  2803 PWs)   bands (ev):

   -49.0679 -21.0158 -21.0019 -20.9983 -12.5923  -1.5561  -1.1864  -0.8270

          k = 0.5687 0.0000 0.5687 (  2806 PWs)   bands (ev):

   -49.0679 -21.0139 -21.0020 -20.9972 -12.6138  -1.4966  -1.2045  -0.7464

          k = 0.0000 0.8531 0.0000 (  2798 PWs)   bands (ev):

   -49.0679 -21.0174 -20.9995 -20.9995 -12.5889  -1.6755  -0.9228  -0.9228

          k = 0.8531 0.0000 0.8531 (  2806 PWs)   bands (ev):

   -49.0679 -21.0179 -21.0010 -20.9995 -12.5765  -1.6455  -1.0656  -0.9107

          k =-0.2844 0.5687 0.0000 (  2801 PWs)   bands (ev):

   -49.0680 -21.0111 -20.9991 -20.9967 -12.6566  -1.4648  -0.9384  -0.7501

          k = 0.5687-0.2844 0.8531 (  2791 PWs)   bands (ev):

   -49.0679 -21.0149 -21.0010 -20.9978 -12.6072  -1.5751  -1.0931  -0.8133

          k = 0.7109-0.1422 0.9953 (  2797 PWs)   bands (ev):

   -49.0679 -21.0163 -21.0011 -20.9994 -12.5861  -1.5753  -1.0793  -0.9382

          k = 0.5687-0.0000 0.8531 (  2791 PWs)   bands (ev):

   -49.0678 -21.0157 -21.0026 -20.9990 -12.5804  -1.4118  -1.3252  -0.9214

     highest occupied level (ev):    -0.5996

!    total energy              =    -188.82966658 Ry

     total all-electron energy =     -1248.116682 Ry
     estimated scf accuracy    <          8.4E-09 Ry

     The total energy is the sum of the following terms:
     one-electron contribution =     -93.83486866 Ry
     hartree contribution      =      52.91968073 Ry
     xc contribution           =     -25.69757533 Ry
     ewald contribution        =     -61.61461010 Ry
     one-center paw contrib.   =     -60.60229322 Ry

     convergence has been achieved in  21 iterations

     Forces acting on atoms (cartesian axes, Ry/au):

     atom    1 type  1   force =    -0.00000000   -0.00000000    0.00000000
     atom    2 type  2   force =    -0.00000000   -0.00000000   -0.00000000

     Total force =     0.000000     Total SCF correction =     0.000000


     Computing stress (Cartesian axis) and pressure

          total   stress  (Ry/bohr**3)                   (kbar)     P=       23.73
   0.00016132   0.00000000   0.00000000           23.73        0.00        0.00
   0.00000000   0.00016132  -0.00000000            0.00       23.73       -0.00
   0.00000000  -0.00000000   0.00016132            0.00       -0.00       23.73

     Energy error            =      9.0E-04
     Gradient error          =      3.9E-31
     Cell gradient error     =      1.6E-04


     number of scf cycles    =   2
     number of bfgs steps    =   1

     enthalpy old            =    -188.8287677722 Ry
     enthalpy new            =    -188.8296665836 Ry

     CASE: enthalpy_new < enthalpy_old


     WARNING: bfgs curvature condition failed, Theta= 0.933
     new trust radius        =       0.0197891659 bohr
ibrav =      2
 celldm(1) =     11.37231969
Input lattice vectors:
    -0.50498755    -0.00000000     0.50498755
    -0.00000000     0.50498755     0.50498755
    -0.50498755     0.50498755    -0.00000000
New lattice vectors in INITIAL alat:
    -0.50498755     0.00000000     0.50498755
     0.00000000     0.50498755     0.50498755
    -0.50498755     0.50498755     0.00000000
New lattice vectors in NEW alat (for information only):
    -0.50000000     0.00000000     0.50000000
     0.00000000     0.50000000     0.50000000
    -0.50000000     0.50000000     0.00000000
Discrepancy in bohr =     0.000000    0.000000    0.000000
     new conv_thr            =            1.0E-10 Ry

     new unit-cell volume =    367.69455 a.u.^3 (    54.48671 Ang^3 )
     density =      1.78111 g/cm^3

CELL_PARAMETERS (alat= 11.26000000)
  -0.504987553   0.000000000   0.504987553
   0.000000000   0.504987553   0.504987553
  -0.504987553   0.504987553   0.000000000

ATOMIC_POSITIONS (alat)
Na           -0.0000000000       -0.0000000000        0.0000000000
Cl            0.2524937764        0.2524937764        0.2524937764



     Writing output data file ./tmp/NaCl.save/
     NEW-OLD atomic charge density approx. for the potential

     Check: negative core charge=   -0.000005
     extrapolated charge   16.24695, renormalised to   16.00000

     total cpu time spent up to now is       88.9 secs

     Self-consistent Calculation

     iteration #  1     ecut=    60.00 Ry     beta= 0.70
     Davidson diagonalization with overlap
     ethr =  1.00E-06,  avg # of iterations =  7.0

     total cpu time spent up to now is       92.2 secs

     total energy              =    -188.81334753 Ry
     estimated scf accuracy    <       0.00990391 Ry

     iteration #  2     ecut=    60.00 Ry     beta= 0.70
     Davidson diagonalization with overlap
     ethr =  6.19E-05,  avg # of iterations =  5.0

     total cpu time spent up to now is       94.6 secs

     total energy              =    -188.83093242 Ry
     estimated scf accuracy    <       0.01817235 Ry

     iteration #  3     ecut=    60.00 Ry     beta= 0.70
     Davidson diagonalization with overlap
     ethr =  6.19E-05,  avg # of iterations =  2.0

     total cpu time spent up to now is       96.3 secs

     total energy              =    -188.83054047 Ry
     estimated scf accuracy    <       0.00507974 Ry

     iteration #  4     ecut=    60.00 Ry     beta= 0.70
     Davidson diagonalization with overlap
     ethr =  3.17E-05,  avg # of iterations =  2.0

     total cpu time spent up to now is       98.0 secs

     total energy              =    -188.83033393 Ry
     estimated scf accuracy    <       0.00197974 Ry

     iteration #  5     ecut=    60.00 Ry     beta= 0.70
     Davidson diagonalization with overlap
     ethr =  1.24E-05,  avg # of iterations =  2.0

     total cpu time spent up to now is       99.7 secs

     total energy              =    -188.83056772 Ry
     estimated scf accuracy    <       0.00058195 Ry

     iteration #  6     ecut=    60.00 Ry     beta= 0.70
     Davidson diagonalization with overlap
     ethr =  3.64E-06,  avg # of iterations =  2.0

     total cpu time spent up to now is      101.3 secs

     total energy              =    -188.83058352 Ry
     estimated scf accuracy    <       0.00035912 Ry

     iteration #  7     ecut=    60.00 Ry     beta= 0.70
     Davidson diagonalization with overlap
     ethr =  2.24E-06,  avg # of iterations =  1.0

     total cpu time spent up to now is      102.8 secs

     total energy              =    -188.83054712 Ry
     estimated scf accuracy    <       0.00023157 Ry

     iteration #  8     ecut=    60.00 Ry     beta= 0.70
     Davidson diagonalization with overlap
     ethr =  1.45E-06,  avg # of iterations =  1.9

     total cpu time spent up to now is      104.4 secs

     total energy              =    -188.83049380 Ry
     estimated scf accuracy    <       0.00011873 Ry

     iteration #  9     ecut=    60.00 Ry     beta= 0.70
     Davidson diagonalization with overlap
     ethr =  7.42E-07,  avg # of iterations =  2.0

     total cpu time spent up to now is      106.1 secs

     total energy              =    -188.83051597 Ry
     estimated scf accuracy    <       0.00002189 Ry

     iteration # 10     ecut=    60.00 Ry     beta= 0.70
     Davidson diagonalization with overlap
     ethr =  1.37E-07,  avg # of iterations =  1.3

     total cpu time spent up to now is      107.6 secs

     total energy              =    -188.83049522 Ry
     estimated scf accuracy    <       0.00002474 Ry

     iteration # 11     ecut=    60.00 Ry     beta= 0.70
     Davidson diagonalization with overlap
     ethr =  1.37E-07,  avg # of iterations =  4.0

     total cpu time spent up to now is      109.7 secs

     total energy              =    -188.83050949 Ry
     estimated scf accuracy    <       0.00000300 Ry

     iteration # 12     ecut=    60.00 Ry     beta= 0.70
     Davidson diagonalization with overlap
     ethr =  1.88E-08,  avg # of iterations =  2.0

     total cpu time spent up to now is      111.4 secs

     total energy              =    -188.83050783 Ry
     estimated scf accuracy    <       0.00000724 Ry

     iteration # 13     ecut=    60.00 Ry     beta= 0.70
     Davidson diagonalization with overlap
     ethr =  1.88E-08,  avg # of iterations =  1.0

     total cpu time spent up to now is      112.9 secs

     total energy              =    -188.83050547 Ry
     estimated scf accuracy    <       0.00000419 Ry

     iteration # 14     ecut=    60.00 Ry     beta= 0.70
     Davidson diagonalization with overlap
     ethr =  1.88E-08,  avg # of iterations =  4.0

     total cpu time spent up to now is      115.0 secs

     total energy              =    -188.83050666 Ry
     estimated scf accuracy    <       0.00000012 Ry

     iteration # 15     ecut=    60.00 Ry     beta= 0.70
     Davidson diagonalization with overlap
     ethr =  7.33E-10,  avg # of iterations =  4.0

     total cpu time spent up to now is      117.0 secs

     total energy              =    -188.83050593 Ry
     estimated scf accuracy    <       0.00000141 Ry

     iteration # 16     ecut=    60.00 Ry     beta= 0.70
     Davidson diagonalization with overlap
     ethr =  7.33E-10,  avg # of iterations =  4.5

     total cpu time spent up to now is      119.3 secs

     total energy              =    -188.83050617 Ry
     estimated scf accuracy    <       0.00000002 Ry

     iteration # 17     ecut=    60.00 Ry     beta= 0.70
     Davidson diagonalization with overlap
     ethr =  1.06E-10,  avg # of iterations =  1.4

     total cpu time spent up to now is      120.8 secs

     total energy              =    -188.83050617 Ry
     estimated scf accuracy    <       0.00000001 Ry

     iteration # 18     ecut=    60.00 Ry     beta= 0.70
     Davidson diagonalization with overlap
     ethr =  7.33E-11,  avg # of iterations =  1.0

     total cpu time spent up to now is      122.3 secs

     total energy              =    -188.83050617 Ry
     estimated scf accuracy    <          9.9E-09 Ry

     iteration # 19     ecut=    60.00 Ry     beta= 0.70
     Davidson diagonalization with overlap
     ethr =  6.19E-11,  avg # of iterations =  1.0

     total cpu time spent up to now is      123.7 secs

     total energy              =    -188.83050617 Ry
     estimated scf accuracy    <          8.0E-09 Ry

     iteration # 20     ecut=    60.00 Ry     beta= 0.70
     Davidson diagonalization with overlap
     ethr =  4.98E-11,  avg # of iterations =  1.0

     total cpu time spent up to now is      125.2 secs

     total energy              =    -188.83050617 Ry
     estimated scf accuracy    <          9.0E-09 Ry

     iteration # 21     ecut=    60.00 Ry     beta= 0.70
     Davidson diagonalization with overlap
     ethr =  4.98E-11,  avg # of iterations =  1.0

     total cpu time spent up to now is      126.7 secs

     total energy              =    -188.83050617 Ry
     estimated scf accuracy    <       0.00000001 Ry

     iteration # 22     ecut=    60.00 Ry     beta= 0.70
     Davidson diagonalization with overlap
     ethr =  4.98E-11,  avg # of iterations =  3.0

     total cpu time spent up to now is      128.5 secs

     End of self-consistent calculation

          k = 0.0000 0.0000 0.0000 (  2741 PWs)   bands (ev):

   -49.1926 -21.1171 -21.1171 -21.1171 -12.9004  -0.6894  -0.6894  -0.6894

          k =-0.1414 0.1414-0.1414 (  2785 PWs)   bands (ev):

   -49.1927 -21.1217 -21.1179 -21.1179 -12.8664  -0.9678  -0.7089  -0.7089

          k =-0.2829 0.2829-0.2829 (  2803 PWs)   bands (ev):

   -49.1926 -21.1309 -21.1190 -21.1190 -12.7889  -1.4856  -0.7518  -0.7518

          k =-0.4243 0.4243-0.4243 (  2821 PWs)   bands (ev):

   -49.1925 -21.1381 -21.1200 -21.1200 -12.7257  -1.8339  -0.7853  -0.7853

          k = 0.0000 0.2829 0.0000 (  2794 PWs)   bands (ev):

   -49.1927 -21.1222 -21.1186 -21.1186 -12.8551  -0.9745  -0.7553  -0.7553

          k =-0.1414 0.4243-0.1414 (  2810 PWs)   bands (ev):

   -49.1926 -21.1293 -21.1198 -21.1196 -12.7923  -1.3520  -0.8140  -0.8113

          k =-0.2829 0.5658-0.2829 (  2800 PWs)   bands (ev):

   -49.1925 -21.1361 -21.1212 -21.1206 -12.7243  -1.7011  -0.9009  -0.8414

          k = 0.5658-0.2829 0.5658 (  2806 PWs)   bands (ev):

   -49.1924 -21.1382 -21.1222 -21.1205 -12.7031  -1.7942  -0.9696  -0.8181

          k = 0.4243-0.1414 0.4243 (  2801 PWs)   bands (ev):

   -49.1925 -21.1338 -21.1217 -21.1195 -12.7452  -1.5959  -0.9547  -0.7608

          k = 0.2829-0.0000 0.2829 (  2798 PWs)   bands (ev):

   -49.1926 -21.1267 -21.1198 -21.1183 -12.8179  -1.2356  -0.8395  -0.7115

          k = 0.0000 0.5658 0.0000 (  2810 PWs)   bands (ev):

   -49.1925 -21.1320 -21.1211 -21.1211 -12.7527  -1.4536  -0.8974  -0.8974

          k =-0.1414 0.7072-0.1414 (  2807 PWs)   bands (ev):

   -49.1924 -21.1366 -21.1229 -21.1221 -12.6996  -1.6315  -1.0303  -0.9400

          k = 0.7072-0.1414 0.7072 (  2803 PWs)   bands (ev):

   -49.1924 -21.1380 -21.1252 -21.1218 -12.6731  -1.6236  -1.2623  -0.9124

          k = 0.5658 0.0000 0.5658 (  2806 PWs)   bands (ev):

   -49.1924 -21.1363 -21.1252 -21.1208 -12.6937  -1.5654  -1.2798  -0.8336

          k = 0.0000 0.8487 0.0000 (  2798 PWs)   bands (ev):

   -49.1924 -21.1395 -21.1230 -21.1230 -12.6699  -1.7400  -1.0061  -1.0061

          k = 0.8487 0.0000 0.8487 (  2806 PWs)   bands (ev):

   -49.1924 -21.1399 -21.1243 -21.1230 -12.6582  -1.7108  -1.1450  -0.9943

          k =-0.2829 0.5658 0.0000 (  2801 PWs)   bands (ev):

   -49.1925 -21.1336 -21.1226 -21.1203 -12.7343  -1.5342  -1.0205  -0.8369

          k = 0.5658-0.2829 0.8487 (  2791 PWs)   bands (ev):

   -49.1924 -21.1371 -21.1243 -21.1213 -12.6873  -1.6420  -1.1714  -0.8987

          k = 0.7072-0.1414 0.9901 (  2797 PWs)   bands (ev):

   -49.1923 -21.1385 -21.1244 -21.1228 -12.6672  -1.6423  -1.1583  -1.0208

          k = 0.5658-0.0000 0.8487 (  2791 PWs)   bands (ev):

   -49.1923 -21.1379 -21.1259 -21.1225 -12.6619  -1.4834  -1.3972  -1.0043

     highest occupied level (ev):    -0.6894

!    total energy              =    -188.83050617 Ry

     total all-electron energy =     -1248.117521 Ry
     estimated scf accuracy    <          1.1E-11 Ry

     The total energy is the sum of the following terms:
     one-electron contribution =     -94.36065313 Ry
     hartree contribution      =      53.11912825 Ry
     xc contribution           =     -25.69170554 Ry
     ewald contribution        =     -61.29585002 Ry
     one-center paw contrib.   =     -60.60142572 Ry

     convergence has been achieved in  22 iterations

     Forces acting on atoms (cartesian axes, Ry/au):

     atom    1 type  1   force =     0.00000000    0.00000000    0.00000000
     atom    2 type  2   force =     0.00000000    0.00000000    0.00000000

     Total force =     0.000000     Total SCF correction =     0.000000


     Computing stress (Cartesian axis) and pressure

          total   stress  (Ry/bohr**3)                   (kbar)     P=       19.71
   0.00013399   0.00000000   0.00000000           19.71        0.00        0.00
   0.00000000   0.00013399   0.00000000            0.00       19.71        0.00
   0.00000000  -0.00000000   0.00013399            0.00       -0.00       19.71

     Energy error            =      8.4E-04
     Gradient error          =      0.0E+00
     Cell gradient error     =      1.3E-04


     number of scf cycles    =   3
     number of bfgs steps    =   2

     enthalpy old            =    -188.8296665836 Ry
     enthalpy new            =    -188.8305061688 Ry

     CASE: enthalpy_new < enthalpy_old

     new trust radius        =       0.0297608318 bohr
ibrav =      2
 celldm(1) =     11.46057087
Input lattice vectors:
    -0.50890634     0.00000000     0.50890634
    -0.00000000     0.50890634     0.50890634
    -0.50890634     0.50890634     0.00000000
New lattice vectors in INITIAL alat:
    -0.50890634     0.00000000     0.50890634
     0.00000000     0.50890634     0.50890634
    -0.50890634     0.50890634     0.00000000
New lattice vectors in NEW alat (for information only):
    -0.50000000     0.00000000     0.50000000
     0.00000000     0.50000000     0.50000000
    -0.50000000     0.50000000     0.00000000
Discrepancy in bohr =     0.000000    0.000000    0.000000
     new conv_thr            =            1.0E-10 Ry

     new unit-cell volume =    376.32127 a.u.^3 (    55.76506 Ang^3 )
     density =      1.74028 g/cm^3

CELL_PARAMETERS (alat= 11.26000000)
  -0.508906344   0.000000000   0.508906344
   0.000000000   0.508906344   0.508906344
  -0.508906344   0.508906344   0.000000000

ATOMIC_POSITIONS (alat)
Na           -0.0000000000       -0.0000000000        0.0000000000
Cl            0.2544531721        0.2544531721        0.2544531721



     Writing output data file ./tmp/NaCl.save/
     NEW-OLD atomic charge density approx. for the potential

     Check: negative core charge=   -0.000005
     extrapolated charge   16.36664, renormalised to   16.00000

     total cpu time spent up to now is      138.6 secs

     Self-consistent Calculation

     iteration #  1     ecut=    60.00 Ry     beta= 0.70
     Davidson diagonalization with overlap
     ethr =  1.00E-06,  avg # of iterations =  7.9

     total cpu time spent up to now is      142.3 secs

     total energy              =    -188.79256736 Ry
     estimated scf accuracy    <       0.02245199 Ry

     iteration #  2     ecut=    60.00 Ry     beta= 0.70
     Davidson diagonalization with overlap
     ethr =  1.40E-04,  avg # of iterations =  5.0

     total cpu time spent up to now is      144.8 secs

     total energy              =    -188.83254817 Ry
     estimated scf accuracy    <       0.04125011 Ry

     iteration #  3     ecut=    60.00 Ry     beta= 0.70
     Davidson diagonalization with overlap
     ethr =  1.40E-04,  avg # of iterations =  2.0

     total cpu time spent up to now is      146.4 secs

     total energy              =    -188.83152424 Ry
     estimated scf accuracy    <       0.01152375 Ry

     iteration #  4     ecut=    60.00 Ry     beta= 0.70
     Davidson diagonalization with overlap
     ethr =  7.20E-05,  avg # of iterations =  2.0

     total cpu time spent up to now is      148.1 secs

     total energy              =    -188.83112331 Ry
     estimated scf accuracy    <       0.00434452 Ry

     iteration #  5     ecut=    60.00 Ry     beta= 0.70
     Davidson diagonalization with overlap
     ethr =  2.72E-05,  avg # of iterations =  2.0

     total cpu time spent up to now is      149.8 secs

     total energy              =    -188.83167255 Ry
     estimated scf accuracy    <       0.00127625 Ry

     iteration #  6     ecut=    60.00 Ry     beta= 0.70
     Davidson diagonalization with overlap
     ethr =  7.98E-06,  avg # of iterations =  2.0

     total cpu time spent up to now is      151.4 secs

     total energy              =    -188.83173397 Ry
     estimated scf accuracy    <       0.00084368 Ry

     iteration #  7     ecut=    60.00 Ry     beta= 0.70
     Davidson diagonalization with overlap
     ethr =  5.27E-06,  avg # of iterations =  1.0

     total cpu time spent up to now is      152.9 secs

     total energy              =    -188.83159385 Ry
     estimated scf accuracy    <       0.00061860 Ry

     iteration #  8     ecut=    60.00 Ry     beta= 0.70
     Davidson diagonalization with overlap
     ethr =  3.87E-06,  avg # of iterations =  1.0

     total cpu time spent up to now is      154.4 secs

     total energy              =    -188.83140695 Ry
     estimated scf accuracy    <       0.00028881 Ry

     iteration #  9     ecut=    60.00 Ry     beta= 0.70
     Davidson diagonalization with overlap
     ethr =  1.81E-06,  avg # of iterations =  4.0

     total cpu time spent up to now is      156.4 secs

     total energy              =    -188.83149350 Ry
     estimated scf accuracy    <       0.00000043 Ry

     iteration # 10     ecut=    60.00 Ry     beta= 0.70
     Davidson diagonalization with overlap
     ethr =  2.68E-09,  avg # of iterations =  7.1

     total cpu time spent up to now is      158.8 secs

     total energy              =    -188.83149637 Ry
     estimated scf accuracy    <       0.00000155 Ry

     iteration # 11     ecut=    60.00 Ry     beta= 0.70
     Davidson diagonalization with overlap
     ethr =  2.68E-09,  avg # of iterations =  2.0

     total cpu time spent up to now is      160.4 secs

     total energy              =    -188.83149480 Ry
     estimated scf accuracy    <       0.00000230 Ry

     iteration # 12     ecut=    60.00 Ry     beta= 0.70
     Davidson diagonalization with overlap
     ethr =  2.68E-09,  avg # of iterations =  5.0

     total cpu time spent up to now is      162.9 secs

     total energy              =    -188.83149592 Ry
     estimated scf accuracy    <       0.00000014 Ry

     iteration # 13     ecut=    60.00 Ry     beta= 0.70
     Davidson diagonalization with overlap
     ethr =  8.85E-10,  avg # of iterations =  5.0

     total cpu time spent up to now is      165.4 secs

     total energy              =    -188.83149557 Ry
     estimated scf accuracy    <       0.00000131 Ry

     iteration # 14     ecut=    60.00 Ry     beta= 0.70
     Davidson diagonalization with overlap
     ethr =  8.85E-10,  avg # of iterations =  3.1

     total cpu time spent up to now is      167.3 secs

     total energy              =    -188.83149558 Ry
     estimated scf accuracy    <       0.00000050 Ry

     iteration # 15     ecut=    60.00 Ry     beta= 0.70
     Davidson diagonalization with overlap
     ethr =  8.85E-10,  avg # of iterations =  1.0

     total cpu time spent up to now is      168.8 secs

     total energy              =    -188.83149545 Ry
     estimated scf accuracy    <       0.00000042 Ry

     iteration # 16     ecut=    60.00 Ry     beta= 0.70
     Davidson diagonalization with overlap
     ethr =  8.85E-10,  avg # of iterations =  2.0

     total cpu time spent up to now is      170.5 secs

     total energy              =    -188.83149544 Ry
     estimated scf accuracy    <       0.00000023 Ry

     iteration # 17     ecut=    60.00 Ry     beta= 0.70
     Davidson diagonalization with overlap
     ethr =  8.85E-10,  avg # of iterations =  1.0

     total cpu time spent up to now is      171.9 secs

     total energy              =    -188.83149551 Ry
     estimated scf accuracy    <       0.00000017 Ry

     iteration # 18     ecut=    60.00 Ry     beta= 0.70
     Davidson diagonalization with overlap
     ethr =  8.85E-10,  avg # of iterations =  1.0

     total cpu time spent up to now is      173.4 secs

     total energy              =    -188.83149528 Ry
     estimated scf accuracy    <       0.00000029 Ry

     iteration # 19     ecut=    60.00 Ry     beta= 0.70
     Davidson diagonalization with overlap
     ethr =  8.85E-10,  avg # of iterations =  3.0

     total cpu time spent up to now is      175.5 secs

     total energy              =    -188.83149538 Ry
     estimated scf accuracy    <          1.5E-09 Ry

     iteration # 20     ecut=    60.00 Ry     beta= 0.70
     Davidson diagonalization with overlap
     ethr =  9.48E-12,  avg # of iterations =  4.9

     total cpu time spent up to now is      177.5 secs

     total energy              =    -188.83149537 Ry
     estimated scf accuracy    <          8.2E-09 Ry

     iteration # 21     ecut=    60.00 Ry     beta= 0.70
     Davidson diagonalization with overlap
     ethr =  9.48E-12,  avg # of iterations =  5.0

     total cpu time spent up to now is      180.1 secs

     total energy              =    -188.83149544 Ry
     estimated scf accuracy    <       0.00000002 Ry

     iteration # 22     ecut=    60.00 Ry     beta= 0.70
     Davidson diagonalization with overlap
     ethr =  9.48E-12,  avg # of iterations =  6.0

     total cpu time spent up to now is      183.0 secs

     total energy              =    -188.83149530 Ry
     estimated scf accuracy    <       0.00000019 Ry

     iteration # 23     ecut=    60.00 Ry     beta= 0.70
     Davidson diagonalization with overlap
     ethr =  9.48E-12,  avg # of iterations =  6.3

     total cpu time spent up to now is      186.1 secs

     total energy              =    -188.83149539 Ry
     estimated scf accuracy    <       0.00000006 Ry

     iteration # 24     ecut=    60.00 Ry     beta= 0.70
     Davidson diagonalization with overlap
     ethr =  9.48E-12,  avg # of iterations =  4.0

     total cpu time spent up to now is      188.1 secs

     total energy              =    -188.83149539 Ry
     estimated scf accuracy    <       0.00000003 Ry

     iteration # 25     ecut=    60.00 Ry     beta= 0.70
     Davidson diagonalization with overlap
     ethr =  9.48E-12,  avg # of iterations =  3.0

     total cpu time spent up to now is      190.0 secs

     total energy              =    -188.83149539 Ry
     estimated scf accuracy    <       0.00000002 Ry

     iteration # 26     ecut=    60.00 Ry     beta= 0.70
     Davidson diagonalization with overlap
     ethr =  9.48E-12,  avg # of iterations =  1.0

     total cpu time spent up to now is      191.5 secs

     total energy              =    -188.83149538 Ry
     estimated scf accuracy    <       0.00000002 Ry

     iteration # 27     ecut=    60.00 Ry     beta= 0.70
     Davidson diagonalization with overlap
     ethr =  9.48E-12,  avg # of iterations =  1.0

     total cpu time spent up to now is      193.0 secs

     total energy              =    -188.83149538 Ry
     estimated scf accuracy    <       0.00000002 Ry

     iteration # 28     ecut=    60.00 Ry     beta= 0.70
     Davidson diagonalization with overlap
     ethr =  9.48E-12,  avg # of iterations =  1.0

     total cpu time spent up to now is      194.4 secs

     total energy              =    -188.83149537 Ry
     estimated scf accuracy    <       0.00000002 Ry

     iteration # 29     ecut=    60.00 Ry     beta= 0.70
     Davidson diagonalization with overlap
     ethr =  9.48E-12,  avg # of iterations =  5.0

     total cpu time spent up to now is      197.0 secs

     total energy              =    -188.83149538 Ry
     estimated scf accuracy    <          1.4E-10 Ry

     iteration # 30     ecut=    60.00 Ry     beta= 0.70
     Davidson diagonalization with overlap
     ethr =  8.49E-13,  avg # of iterations =  2.0

     total cpu time spent up to now is      198.9 secs

     End of self-consistent calculation

          k = 0.0000 0.0000 0.0000 (  2741 PWs)   bands (ev):

   -49.3746 -21.2984 -21.2984 -21.2984 -13.0013  -0.8197  -0.8197  -0.8197

          k =-0.1404 0.1404-0.1404 (  2785 PWs)   bands (ev):

   -49.3747 -21.3025 -21.2991 -21.2991 -12.9697  -1.0879  -0.8387  -0.8387

          k =-0.2807 0.2807-0.2807 (  2803 PWs)   bands (ev):

   -49.3746 -21.3107 -21.3001 -21.3001 -12.8978  -1.5876  -0.8805  -0.8805

          k =-0.4211 0.4211-0.4211 (  2821 PWs)   bands (ev):

   -49.3746 -21.3171 -21.3010 -21.3010 -12.8391  -1.9240  -0.9132  -0.9132

          k = 0.0000 0.2807 0.0000 (  2794 PWs)   bands (ev):

   -49.3747 -21.3029 -21.2997 -21.2997 -12.9593  -1.0943  -0.8834  -0.8834

          k =-0.1404 0.4211-0.1404 (  2810 PWs)   bands (ev):

   -49.3747 -21.3092 -21.3008 -21.3007 -12.9009  -1.4587  -0.9405  -0.9377

          k =-0.2807 0.5614-0.2807 (  2800 PWs)   bands (ev):

   -49.3745 -21.3153 -21.3021 -21.3015 -12.8378  -1.7958  -1.0243  -0.9673

          k = 0.5614-0.2807 0.5614 (  2806 PWs)   bands (ev):

   -49.3745 -21.3172 -21.3030 -21.3014 -12.8181  -1.8857  -1.0905  -0.9450

          k = 0.4211-0.1404 0.4211 (  2801 PWs)   bands (ev):

   -49.3746 -21.3132 -21.3025 -21.3006 -12.8572  -1.6943  -1.0760  -0.8895

          k = 0.2807-0.0000 0.2807 (  2798 PWs)   bands (ev):

   -49.3747 -21.3069 -21.3008 -21.2995 -12.9247  -1.3463  -0.9647  -0.8415

          k = 0.0000 0.5614 0.0000 (  2810 PWs)   bands (ev):

   -49.3746 -21.3117 -21.3020 -21.3020 -12.8642  -1.5568  -1.0212  -1.0212

          k =-0.1404 0.7018-0.1404 (  2807 PWs)   bands (ev):

   -49.3745 -21.3157 -21.3036 -21.3029 -12.8148  -1.7288  -1.1493  -1.0626

          k = 0.7018-0.1404 0.7018 (  2803 PWs)   bands (ev):

   -49.3744 -21.3170 -21.3057 -21.3026 -12.7902  -1.7214  -1.3724  -1.0361

          k = 0.5614 0.0000 0.5614 (  2806 PWs)   bands (ev):

   -49.3745 -21.3154 -21.3057 -21.3017 -12.8093  -1.6652  -1.3891  -0.9599

          k = 0.0000 0.8421 0.0000 (  2798 PWs)   bands (ev):

   -49.3744 -21.3184 -21.3036 -21.3036 -12.7872  -1.8336  -1.1267  -1.1267

          k = 0.8421 0.0000 0.8421 (  2806 PWs)   bands (ev):

   -49.3744 -21.3187 -21.3049 -21.3036 -12.7763  -1.8054  -1.2601  -1.1153

          k =-0.2807 0.5614-0.0000 (  2801 PWs)   bands (ev):

   -49.3745 -21.3131 -21.3033 -21.3013 -12.8470  -1.6348  -1.1395  -0.9628

          k = 0.5614-0.2807 0.8421 (  2791 PWs)   bands (ev):

   -49.3744 -21.3162 -21.3049 -21.3022 -12.8034  -1.7390  -1.2849  -1.0226

          k = 0.7018-0.1404 0.9825 (  2797 PWs)   bands (ev):

   -49.3744 -21.3174 -21.3050 -21.3035 -12.7848  -1.7394  -1.2727  -1.1403

          k = 0.5614-0.0000 0.8421 (  2791 PWs)   bands (ev):

   -49.3744 -21.3169 -21.3063 -21.3032 -12.7798  -1.5873  -1.5015  -1.1244

     highest occupied level (ev):    -0.8197

!    total energy              =    -188.83149538 Ry

     total all-electron energy =     -1248.118510 Ry
     estimated scf accuracy    <          9.0E-12 Ry

     The total energy is the sum of the following terms:
     one-electron contribution =     -95.13974457 Ry
     hartree contribution      =      53.41530551 Ry
     xc contribution           =     -25.68307929 Ry
     ewald contribution        =     -60.82384637 Ry
     one-center paw contrib.   =     -60.60013065 Ry

     convergence has been achieved in  30 iterations

     Forces acting on atoms (cartesian axes, Ry/au):

     atom    1 type  1   force =     0.00000000    0.00000000    0.00000000
     atom    2 type  2   force =     0.00000000   -0.00000000    0.00000000

     Total force =     0.000000     Total SCF correction =     0.000000


     Computing stress (Cartesian axis) and pressure

          total   stress  (Ry/bohr**3)                   (kbar)     P=       14.16
   0.00009628  -0.00000000   0.00000000           14.16       -0.00        0.00
   0.00000000   0.00009628  -0.00000000            0.00       14.16       -0.00
  -0.00000000  -0.00000000   0.00009628           -0.00       -0.00       14.16

     Energy error            =      9.9E-04
     Gradient error          =      6.5E-32
     Cell gradient error     =      9.6E-05


     number of scf cycles    =   4
     number of bfgs steps    =   3

     enthalpy old            =    -188.8305061688 Ry
     enthalpy new            =    -188.8314953754 Ry

     CASE: enthalpy_new < enthalpy_old

     new trust radius        =       0.0448141249 bohr
ibrav =      2
 celldm(1) =     11.59294765
Input lattice vectors:
    -0.51478453     0.00000000     0.51478453
    -0.00000000     0.51478453     0.51478453
    -0.51478453     0.51478453     0.00000000
New lattice vectors in INITIAL alat:
    -0.51478453     0.00000000     0.51478453
     0.00000000     0.51478453     0.51478453
    -0.51478453     0.51478453     0.00000000
New lattice vectors in NEW alat (for information only):
    -0.50000000     0.00000000     0.50000000
     0.00000000     0.50000000     0.50000000
    -0.50000000     0.50000000     0.00000000
Discrepancy in bohr =     0.000000    0.000000    0.000000
     new conv_thr            =            1.0E-10 Ry

     new unit-cell volume =    389.51271 a.u.^3 (    57.71983 Ang^3 )
     density =      1.68134 g/cm^3

CELL_PARAMETERS (alat= 11.26000000)
  -0.514784531   0.000000000   0.514784531
   0.000000000   0.514784531   0.514784531
  -0.514784531   0.514784531   0.000000000

ATOMIC_POSITIONS (alat)
Na           -0.0000000000       -0.0000000000        0.0000000000
Cl            0.2573922657        0.2573922657        0.2573922657



     Writing output data file ./tmp/NaCl.save/
     NEW-OLD atomic charge density approx. for the potential

     Check: negative core charge=   -0.000004
     extrapolated charge   16.54165, renormalised to   16.00000

     total cpu time spent up to now is      209.0 secs

     Self-consistent Calculation

     iteration #  1     ecut=    60.00 Ry     beta= 0.70
     Davidson diagonalization with overlap
     ethr =  1.00E-06,  avg # of iterations =  8.2

     total cpu time spent up to now is      212.7 secs

     total energy              =    -188.74375462 Ry
     estimated scf accuracy    <       0.05107694 Ry

     iteration #  2     ecut=    60.00 Ry     beta= 0.70
     Davidson diagonalization with overlap
     ethr =  3.19E-04,  avg # of iterations =  5.0

     total cpu time spent up to now is      215.2 secs

     total energy              =    -188.83514576 Ry
     estimated scf accuracy    <       0.09407689 Ry

     iteration #  3     ecut=    60.00 Ry     beta= 0.70
     Davidson diagonalization with overlap
     ethr =  3.19E-04,  avg # of iterations =  2.0

     total cpu time spent up to now is      216.9 secs

     total energy              =    -188.83245469 Ry
     estimated scf accuracy    <       0.02626052 Ry

     iteration #  4     ecut=    60.00 Ry     beta= 0.70
     Davidson diagonalization with overlap
     ethr =  1.64E-04,  avg # of iterations =  2.0

     total cpu time spent up to now is      218.5 secs

     total energy              =    -188.83166903 Ry
     estimated scf accuracy    <       0.00955218 Ry

     iteration #  5     ecut=    60.00 Ry     beta= 0.70
     Davidson diagonalization with overlap
     ethr =  5.97E-05,  avg # of iterations =  2.0

     total cpu time spent up to now is      220.3 secs

     total energy              =    -188.83292679 Ry
     estimated scf accuracy    <       0.00281181 Ry

     iteration #  6     ecut=    60.00 Ry     beta= 0.70
     Davidson diagonalization with overlap
     ethr =  1.76E-05,  avg # of iterations =  1.9

     total cpu time spent up to now is      221.9 secs

     total energy              =    -188.83331478 Ry
     estimated scf accuracy    <       0.00197479 Ry

     iteration #  7     ecut=    60.00 Ry     beta= 0.70
     Davidson diagonalization with overlap
     ethr =  1.23E-05,  avg # of iterations =  1.0

     total cpu time spent up to now is      223.3 secs

     total energy              =    -188.83251609 Ry
     estimated scf accuracy    <       0.00214300 Ry

     iteration #  8     ecut=    60.00 Ry     beta= 0.70
     Davidson diagonalization with overlap
     ethr =  1.23E-05,  avg # of iterations =  1.3

     total cpu time spent up to now is      224.9 secs

     total energy              =    -188.83271669 Ry
     estimated scf accuracy    <       0.00067163 Ry

     iteration #  9     ecut=    60.00 Ry     beta= 0.70
     Davidson diagonalization with overlap
     ethr =  4.20E-06,  avg # of iterations =  1.4

     total cpu time spent up to now is      226.4 secs

     total energy              =    -188.83259443 Ry
     estimated scf accuracy    <       0.00077951 Ry

     iteration # 10     ecut=    60.00 Ry     beta= 0.70
     Davidson diagonalization with overlap
     ethr =  4.20E-06,  avg # of iterations =  1.0

     total cpu time spent up to now is      227.8 secs

     total energy              =    -188.83235151 Ry
     estimated scf accuracy    <       0.00043381 Ry

     iteration # 11     ecut=    60.00 Ry     beta= 0.70
     Davidson diagonalization with overlap
     ethr =  2.71E-06,  avg # of iterations =  3.9

     total cpu time spent up to now is      229.8 secs

     total energy              =    -188.83241796 Ry
     estimated scf accuracy    <       0.00002495 Ry

     iteration # 12     ecut=    60.00 Ry     beta= 0.70
     Davidson diagonalization with overlap
     ethr =  1.56E-07,  avg # of iterations =  4.0

     total cpu time spent up to now is      231.9 secs

     total energy              =    -188.83244464 Ry
     estimated scf accuracy    <       0.00001386 Ry

     iteration # 13     ecut=    60.00 Ry     beta= 0.70
     Davidson diagonalization with overlap
     ethr =  8.67E-08,  avg # of iterations =  1.0

     total cpu time spent up to now is      233.4 secs

     total energy              =    -188.83244492 Ry
     estimated scf accuracy    <       0.00001267 Ry

     iteration # 14     ecut=    60.00 Ry     beta= 0.70
     Davidson diagonalization with overlap
     ethr =  7.92E-08,  avg # of iterations =  1.0

     total cpu time spent up to now is      234.9 secs

     total energy              =    -188.83244555 Ry
     estimated scf accuracy    <       0.00001336 Ry

     iteration # 15     ecut=    60.00 Ry     beta= 0.70
     Davidson diagonalization with overlap
     ethr =  7.92E-08,  avg # of iterations =  1.0

     total cpu time spent up to now is      236.4 secs

     total energy              =    -188.83244399 Ry
     estimated scf accuracy    <       0.00001436 Ry

     iteration # 16     ecut=    60.00 Ry     beta= 0.70
     Davidson diagonalization with overlap
     ethr =  7.92E-08,  avg # of iterations =  1.0

     total cpu time spent up to now is      237.9 secs

     total energy              =    -188.83243793 Ry
     estimated scf accuracy    <       0.00001143 Ry

     iteration # 17     ecut=    60.00 Ry     beta= 0.70
     Davidson diagonalization with overlap
     ethr =  7.14E-08,  avg # of iterations =  2.0

     total cpu time spent up to now is      239.5 secs

     total energy              =    -188.83243974 Ry
     estimated scf accuracy    <       0.00000141 Ry

     iteration # 18     ecut=    60.00 Ry     beta= 0.70
     Davidson diagonalization with overlap
     ethr =  8.78E-09,  avg # of iterations =  2.0

     total cpu time spent up to now is      241.1 secs

     total energy              =    -188.83243876 Ry
     estimated scf accuracy    <       0.00000149 Ry

     iteration # 19     ecut=    60.00 Ry     beta= 0.70
     Davidson diagonalization with overlap
     ethr =  8.78E-09,  avg # of iterations =  4.0

     total cpu time spent up to now is      243.2 secs

     total energy              =    -188.83243936 Ry
     estimated scf accuracy    <       0.00000015 Ry

     iteration # 20     ecut=    60.00 Ry     beta= 0.70
     Davidson diagonalization with overlap
     ethr =  9.09E-10,  avg # of iterations =  1.1

     total cpu time spent up to now is      244.6 secs

     total energy              =    -188.83243931 Ry
     estimated scf accuracy    <       0.00000008 Ry

     iteration # 21     ecut=    60.00 Ry     beta= 0.70
     Davidson diagonalization with overlap
     ethr =  5.13E-10,  avg # of iterations =  4.0

     total cpu time spent up to now is      246.7 secs

     total energy              =    -188.83243934 Ry
     estimated scf accuracy    <          1.7E-09 Ry

     iteration # 22     ecut=    60.00 Ry     beta= 0.70
     Davidson diagonalization with overlap
     ethr =  1.07E-11,  avg # of iterations =  3.0

     total cpu time spent up to now is      248.3 secs

     total energy              =    -188.83243934 Ry
     estimated scf accuracy    <          1.6E-09 Ry

     iteration # 23     ecut=    60.00 Ry     beta= 0.70
     Davidson diagonalization with overlap
     ethr =  9.99E-12,  avg # of iterations =  6.0

     total cpu time spent up to now is      251.1 secs

     total energy              =    -188.83243933 Ry
     estimated scf accuracy    <       0.00000002 Ry

     iteration # 24     ecut=    60.00 Ry     beta= 0.70
     Davidson diagonalization with overlap
     ethr =  9.99E-12,  avg # of iterations =  5.0

     total cpu time spent up to now is      253.7 secs

     End of self-consistent calculation

          k = 0.0000 0.0000 0.0000 (  2741 PWs)   bands (ev):

   -49.6413 -21.5636 -21.5636 -21.5636 -13.1463  -1.0057  -1.0057  -1.0057

          k =-0.1388 0.1388-0.1388 (  2785 PWs)   bands (ev):

   -49.6414 -21.5670 -21.5642 -21.5642 -13.1179  -1.2592  -1.0240  -1.0240

          k =-0.2775 0.2775-0.2775 (  2803 PWs)   bands (ev):

   -49.6413 -21.5739 -21.5650 -21.5650 -13.0535  -1.7331  -1.0642  -1.0642

          k =-0.4163 0.4163-0.4163 (  2821 PWs)   bands (ev):

   -49.6413 -21.5793 -21.5658 -21.5658 -13.0010  -2.0526  -1.0956  -1.0956

          k = 0.0000 0.2775 0.0000 (  2794 PWs)   bands (ev):

   -49.6414 -21.5674 -21.5647 -21.5647 -13.1085  -1.2654  -1.0664  -1.0664

          k =-0.1388 0.4163-0.1388 (  2810 PWs)   bands (ev):

   -49.6413 -21.5726 -21.5656 -21.5655 -13.0563  -1.6109  -1.1210  -1.1181

          k =-0.2775 0.5550-0.2775 (  2800 PWs)   bands (ev):

   -49.6412 -21.5778 -21.5667 -21.5662 -12.9997  -1.9310  -1.2004  -1.1469

          k = 0.5550-0.2775 0.5550 (  2806 PWs)   bands (ev):

   -49.6412 -21.5794 -21.5675 -21.5661 -12.9821  -2.0163  -1.2631  -1.1260

          k = 0.4163-0.1388 0.4163 (  2801 PWs)   bands (ev):

   -49.6413 -21.5761 -21.5671 -21.5654 -13.0171  -1.8346  -1.2491  -1.0731

          k = 0.2775-0.0000 0.2775 (  2798 PWs)   bands (ev):

   -49.6413 -21.5707 -21.5656 -21.5645 -13.0776  -1.5043  -1.1434  -1.0271

          k = 0.0000 0.5550 0.0000 (  2810 PWs)   bands (ev):

   -49.6413 -21.5747 -21.5667 -21.5667 -13.0233  -1.7042  -1.1978  -1.1978

          k =-0.1388 0.6938-0.1388 (  2807 PWs)   bands (ev):

   -49.6412 -21.5781 -21.5680 -21.5674 -12.9791  -1.8677  -1.3190  -1.2375

          k = 0.6938-0.1388 0.6938 (  2803 PWs)   bands (ev):

   -49.6412 -21.5792 -21.5698 -21.5672 -12.9572  -1.8609  -1.5295  -1.2126

          k = 0.5550 0.0000 0.5550 (  2806 PWs)   bands (ev):

   -49.6412 -21.5779 -21.5698 -21.5664 -12.9742  -1.8076  -1.5450  -1.1402

          k = 0.0000 0.8325 0.0000 (  2798 PWs)   bands (ev):

   -49.6411 -21.5804 -21.5680 -21.5680 -12.9545  -1.9672  -1.2986  -1.2986

          k = 0.8325 0.0000 0.8325 (  2806 PWs)   bands (ev):

   -49.6411 -21.5806 -21.5691 -21.5680 -12.9447  -1.9406  -1.4243  -1.2879

          k =-0.2775 0.5550-0.0000 (  2801 PWs)   bands (ev):

   -49.6412 -21.5759 -21.5678 -21.5661 -13.0080  -1.7783  -1.3093  -1.1425

          k = 0.5550-0.2775 0.8325 (  2791 PWs)   bands (ev):

   -49.6411 -21.5785 -21.5691 -21.5668 -12.9690  -1.8774  -1.4468  -1.1994

          k = 0.6938-0.1388 0.9713 (  2797 PWs)   bands (ev):

   -49.6411 -21.5795 -21.5692 -21.5680 -12.9523  -1.8780  -1.4360  -1.3109

          k = 0.5550-0.0000 0.8325 (  2791 PWs)   bands (ev):

   -49.6411 -21.5791 -21.5703 -21.5677 -12.9478  -1.7356  -1.6502  -1.2957

     highest occupied level (ev):    -1.0057

!    total energy              =    -188.83243934 Ry

     total all-electron energy =     -1248.119454 Ry
     estimated scf accuracy    <          1.7E-11 Ry

     The total energy is the sum of the following terms:
     one-electron contribution =     -96.28854669 Ry
     hartree contribution      =      53.85453603 Ry
     xc contribution           =     -25.67082637 Ry
     ewald contribution        =     -60.12931511 Ry
     one-center paw contrib.   =     -60.59828719 Ry

     convergence has been achieved in  24 iterations

     Forces acting on atoms (cartesian axes, Ry/au):

     atom    1 type  1   force =     0.00000000   -0.00000000    0.00000000
     atom    2 type  2   force =     0.00000000    0.00000000   -0.00000000

     Total force =     0.000000     Total SCF correction =     0.000000


     Computing stress (Cartesian axis) and pressure

          total   stress  (Ry/bohr**3)                   (kbar)     P=        7.18
   0.00004881   0.00000000   0.00000000            7.18        0.00        0.00
   0.00000000   0.00004881   0.00000000            0.00        7.18        0.00
   0.00000000   0.00000000   0.00004881            0.00        0.00        7.18

     Energy error            =      9.4E-04
     Gradient error          =      5.7E-31
     Cell gradient error     =      4.9E-05


     number of scf cycles    =   5
     number of bfgs steps    =   4

     enthalpy old            =    -188.8314953754 Ry
     enthalpy new            =    -188.8324393375 Ry

     CASE: enthalpy_new < enthalpy_old

     new trust radius        =       0.0485877586 bohr
ibrav =      2
 celldm(1) =     11.73564961
Input lattice vectors:
    -0.52112121    -0.00000000     0.52112121
     0.00000000     0.52112121     0.52112121
    -0.52112121     0.52112121     0.00000000
New lattice vectors in INITIAL alat:
    -0.52112121     0.00000000     0.52112121
     0.00000000     0.52112121     0.52112121
    -0.52112121     0.52112121     0.00000000
New lattice vectors in NEW alat (for information only):
    -0.50000000     0.00000000     0.50000000
     0.00000000     0.50000000     0.50000000
    -0.50000000     0.50000000     0.00000000
Discrepancy in bohr =     0.000000    0.000000    0.000000
     new conv_thr            =            1.0E-10 Ry

     new unit-cell volume =    404.07447 a.u.^3 (    59.87766 Ang^3 )
     density =      1.62075 g/cm^3

CELL_PARAMETERS (alat= 11.26000000)
  -0.521121208   0.000000000   0.521121208
   0.000000000   0.521121208   0.521121208
  -0.521121208   0.521121208   0.000000000

ATOMIC_POSITIONS (alat)
Na           -0.0000000000       -0.0000000000        0.0000000000
Cl            0.2605606041        0.2605606041        0.2605606041



     Writing output data file ./tmp/NaCl.save/
     NEW-OLD atomic charge density approx. for the potential

     Check: negative core charge=   -0.000003
     extrapolated charge   16.57637, renormalised to   16.00000

     total cpu time spent up to now is      263.7 secs

     Self-consistent Calculation

     iteration #  1     ecut=    60.00 Ry     beta= 0.70
     Davidson diagonalization with overlap
     ethr =  1.00E-06,  avg # of iterations =  8.3

     total cpu time spent up to now is      267.5 secs

     total energy              =    -188.73089586 Ry
     estimated scf accuracy    <       0.05873568 Ry

     iteration #  2     ecut=    60.00 Ry     beta= 0.70
     Davidson diagonalization with overlap
     ethr =  3.67E-04,  avg # of iterations =  5.0

     total cpu time spent up to now is      270.0 secs

     total energy              =    -188.83601928 Ry
     estimated scf accuracy    <       0.10870048 Ry

     iteration #  3     ecut=    60.00 Ry     beta= 0.70
     Davidson diagonalization with overlap
     ethr =  3.67E-04,  avg # of iterations =  2.0

     total cpu time spent up to now is      271.7 secs

     total energy              =    -188.83300507 Ry
     estimated scf accuracy    <       0.03001798 Ry

     iteration #  4     ecut=    60.00 Ry     beta= 0.70
     Davidson diagonalization with overlap
     ethr =  1.88E-04,  avg # of iterations =  2.0

     total cpu time spent up to now is      273.3 secs

     total energy              =    -188.83202502 Ry
     estimated scf accuracy    <       0.01087034 Ry

     iteration #  5     ecut=    60.00 Ry     beta= 0.70
     Davidson diagonalization with overlap
     ethr =  6.79E-05,  avg # of iterations =  2.0

     total cpu time spent up to now is      275.0 secs

     total energy              =    -188.83340280 Ry
     estimated scf accuracy    <       0.00314803 Ry

     iteration #  6     ecut=    60.00 Ry     beta= 0.70
     Davidson diagonalization with overlap
     ethr =  1.97E-05,  avg # of iterations =  1.3

     total cpu time spent up to now is      276.5 secs

     total energy              =    -188.83373398 Ry
     estimated scf accuracy    <       0.00219191 Ry

     iteration #  7     ecut=    60.00 Ry     beta= 0.70
     Davidson diagonalization with overlap
     ethr =  1.37E-05,  avg # of iterations =  1.0

     total cpu time spent up to now is      278.0 secs

     total energy              =    -188.83319895 Ry
     estimated scf accuracy    <       0.00242393 Ry

     iteration #  8     ecut=    60.00 Ry     beta= 0.70
     Davidson diagonalization with overlap
     ethr =  1.37E-05,  avg # of iterations =  1.0

     total cpu time spent up to now is      279.5 secs

     total energy              =    -188.83307767 Ry
     estimated scf accuracy    <       0.00112508 Ry

     iteration #  9     ecut=    60.00 Ry     beta= 0.70
     Davidson diagonalization with overlap
     ethr =  7.03E-06,  avg # of iterations =  2.0

     total cpu time spent up to now is      281.1 secs

     total energy              =    -188.83283620 Ry
     estimated scf accuracy    <       0.00061666 Ry

     iteration # 10     ecut=    60.00 Ry     beta= 0.70
     Davidson diagonalization with overlap
     ethr =  3.85E-06,  avg # of iterations =  2.0

     total cpu time spent up to now is      282.8 secs

     total energy              =    -188.83275658 Ry
     estimated scf accuracy    <       0.00015093 Ry

     iteration # 11     ecut=    60.00 Ry     beta= 0.70
     Davidson diagonalization with overlap
     ethr =  9.43E-07,  avg # of iterations =  4.0

     total cpu time spent up to now is      284.8 secs

     total energy              =    -188.83283961 Ry
     estimated scf accuracy    <       0.00002639 Ry

     iteration # 12     ecut=    60.00 Ry     beta= 0.70
     Davidson diagonalization with overlap
     ethr =  1.65E-07,  avg # of iterations =  2.0

     total cpu time spent up to now is      286.5 secs

     total energy              =    -188.83284003 Ry
     estimated scf accuracy    <       0.00000345 Ry

     iteration # 13     ecut=    60.00 Ry     beta= 0.70
     Davidson diagonalization with overlap
     ethr =  2.15E-08,  avg # of iterations =  4.2

     total cpu time spent up to now is      288.7 secs

     total energy              =    -188.83284271 Ry
     estimated scf accuracy    <       0.00000548 Ry

     iteration # 14     ecut=    60.00 Ry     beta= 0.70
     Davidson diagonalization with overlap
     ethr =  2.15E-08,  avg # of iterations =  2.0

     total cpu time spent up to now is      290.4 secs

     total energy              =    -188.83284266 Ry
     estimated scf accuracy    <       0.00000169 Ry

     iteration # 15     ecut=    60.00 Ry     beta= 0.70
     Davidson diagonalization with overlap
     ethr =  1.05E-08,  avg # of iterations =  1.1

     total cpu time spent up to now is      291.8 secs

     total energy              =    -188.83284236 Ry
     estimated scf accuracy    <       0.00000092 Ry

     iteration # 16     ecut=    60.00 Ry     beta= 0.70
     Davidson diagonalization with overlap
     ethr =  5.72E-09,  avg # of iterations =  2.0

     total cpu time spent up to now is      293.5 secs

     total energy              =    -188.83284241 Ry
     estimated scf accuracy    <       0.00000031 Ry

     iteration # 17     ecut=    60.00 Ry     beta= 0.70
     Davidson diagonalization with overlap
     ethr =  1.96E-09,  avg # of iterations =  2.0

     total cpu time spent up to now is      295.2 secs

     total energy              =    -188.83284226 Ry
     estimated scf accuracy    <       0.00000018 Ry

     iteration # 18     ecut=    60.00 Ry     beta= 0.70
     Davidson diagonalization with overlap
     ethr =  1.12E-09,  avg # of iterations =  4.0

     total cpu time spent up to now is      297.4 secs

     total energy              =    -188.83284244 Ry
     estimated scf accuracy    <       0.00000020 Ry

     iteration # 19     ecut=    60.00 Ry     beta= 0.70
     Davidson diagonalization with overlap
     ethr =  1.12E-09,  avg # of iterations =  1.0

     total cpu time spent up to now is      298.8 secs

     total energy              =    -188.83284234 Ry
     estimated scf accuracy    <       0.00000018 Ry

     iteration # 20     ecut=    60.00 Ry     beta= 0.70
     Davidson diagonalization with overlap
     ethr =  1.11E-09,  avg # of iterations =  2.0

     total cpu time spent up to now is      300.5 secs

     total energy              =    -188.83284235 Ry
     estimated scf accuracy    <       0.00000003 Ry

     iteration # 21     ecut=    60.00 Ry     beta= 0.70
     Davidson diagonalization with overlap
     ethr =  1.57E-10,  avg # of iterations =  4.0

     total cpu time spent up to now is      302.5 secs

     total energy              =    -188.83284236 Ry
     estimated scf accuracy    <          1.4E-09 Ry

     iteration # 22     ecut=    60.00 Ry     beta= 0.70
     Davidson diagonalization with overlap
     ethr =  8.61E-12,  avg # of iterations =  2.2

     total cpu time spent up to now is      304.1 secs

     total energy              =    -188.83284236 Ry
     estimated scf accuracy    <          1.3E-09 Ry

     iteration # 23     ecut=    60.00 Ry     beta= 0.70
     Davidson diagonalization with overlap
     ethr =  7.87E-12,  avg # of iterations =  1.0

     total cpu time spent up to now is      305.6 secs

     total energy              =    -188.83284236 Ry
     estimated scf accuracy    <          1.6E-09 Ry

     iteration # 24     ecut=    60.00 Ry     beta= 0.70
     Davidson diagonalization with overlap
     ethr =  7.87E-12,  avg # of iterations =  2.0

     total cpu time spent up to now is      307.3 secs

     total energy              =    -188.83284236 Ry
     estimated scf accuracy    <          4.9E-10 Ry

     iteration # 25     ecut=    60.00 Ry     beta= 0.70
     Davidson diagonalization with overlap
     ethr =  3.08E-12,  avg # of iterations =  1.0

     total cpu time spent up to now is      308.8 secs

     total energy              =    -188.83284236 Ry
     estimated scf accuracy    <          3.8E-10 Ry

     iteration # 26     ecut=    60.00 Ry     beta= 0.70
     Davidson diagonalization with overlap
     ethr =  2.34E-12,  avg # of iterations =  1.0

     total cpu time spent up to now is      310.2 secs

     total energy              =    -188.83284236 Ry
     estimated scf accuracy    <          4.8E-10 Ry

     iteration # 27     ecut=    60.00 Ry     beta= 0.70
     Davidson diagonalization with overlap
     ethr =  2.34E-12,  avg # of iterations =  1.0

     total cpu time spent up to now is      311.7 secs

     total energy              =    -188.83284236 Ry
     estimated scf accuracy    <          2.1E-10 Ry

     iteration # 28     ecut=    60.00 Ry     beta= 0.70
     Davidson diagonalization with overlap
     ethr =  1.32E-12,  avg # of iterations =  2.0

     total cpu time spent up to now is      313.4 secs

     End of self-consistent calculation

          k = 0.0000 0.0000 0.0000 (  2741 PWs)   bands (ev):

   -49.9209 -21.8408 -21.8408 -21.8408 -13.2939  -1.1941  -1.1941  -1.1941

          k =-0.1371 0.1371-0.1371 (  2785 PWs)   bands (ev):

   -49.9210 -21.8435 -21.8412 -21.8412 -13.2687  -1.4328  -1.2117  -1.2117

          k =-0.2741 0.2741-0.2741 (  2803 PWs)   bands (ev):

   -49.9210 -21.8492 -21.8419 -21.8419 -13.2114  -1.8804  -1.2501  -1.2501

          k =-0.4112 0.4112-0.4112 (  2821 PWs)   bands (ev):

   -49.9210 -21.8537 -21.8425 -21.8425 -13.1648  -2.1826  -1.2803  -1.2803

          k = 0.0000 0.2741 0.0000 (  2794 PWs)   bands (ev):

   -49.9210 -21.8438 -21.8417 -21.8417 -13.2604  -1.4386  -1.2517  -1.2517

          k =-0.1371 0.4112-0.1371 (  2810 PWs)   bands (ev):

   -49.9210 -21.8482 -21.8424 -21.8423 -13.2139  -1.7650  -1.3036  -1.3008

          k =-0.2741 0.5483-0.2741 (  2800 PWs)   bands (ev):

   -49.9209 -21.8525 -21.8433 -21.8429 -13.1637  -2.0678  -1.3786  -1.3286

          k = 0.5483-0.2741 0.5483 (  2806 PWs)   bands (ev):

   -49.9209 -21.8538 -21.8440 -21.8428 -13.1481  -2.1485  -1.4377  -1.3091

          k = 0.4112-0.1371 0.4112 (  2801 PWs)   bands (ev):

   -49.9209 -21.8510 -21.8436 -21.8422 -13.1791  -1.9765  -1.4242  -1.2589

          k = 0.2741-0.0000 0.2741 (  2798 PWs)   bands (ev):

   -49.9210 -21.8466 -21.8424 -21.8415 -13.2328  -1.6642  -1.3243  -1.2150

          k = 0.0000 0.5483 0.0000 (  2810 PWs)   bands (ev):

   -49.9210 -21.8499 -21.8433 -21.8433 -13.1846  -1.8533  -1.3765  -1.3765

          k =-0.1371 0.6853-0.1371 (  2807 PWs)   bands (ev):

   -49.9209 -21.8527 -21.8444 -21.8439 -13.1454  -2.0082  -1.4907  -1.4144

          k = 0.6853-0.1371 0.6853 (  2803 PWs)   bands (ev):

   -49.9209 -21.8536 -21.8459 -21.8437 -13.1259  -2.0022  -1.6884  -1.3910

          k = 0.5483 0.0000 0.5483 (  2806 PWs)   bands (ev):

[...]

          k = 0.5469-0.2734 0.5469 (  2806 PWs)   bands (ev):

   -49.9795 -21.9112 -21.9018 -21.9007 -13.1821  -2.1755  -1.4735  -1.3465

          k = 0.4101-0.1367 0.4101 (  2801 PWs)   bands (ev):

   -49.9796 -21.9085 -21.9014 -21.9001 -13.2123  -2.0056  -1.4601  -1.2969

          k = 0.2734-0.0000 0.2734 (  2798 PWs)   bands (ev):

   -49.9796 -21.9043 -21.9003 -21.8994 -13.2647  -1.6969  -1.3613  -1.2534

          k = 0.0000 0.5469 0.0000 (  2810 PWs)   bands (ev):

   -49.9796 -21.9075 -21.9011 -21.9011 -13.2177  -1.8838  -1.4130  -1.4130

          k =-0.1367 0.6836-0.1367 (  2807 PWs)   bands (ev):

   -49.9795 -21.9102 -21.9022 -21.9017 -13.1794  -2.0370  -1.5258  -1.4506

          k = 0.6836-0.1367 0.6836 (  2803 PWs)   bands (ev):

   -49.9795 -21.9110 -21.9036 -21.9015 -13.1604  -2.0311  -1.7209  -1.4275

          k = 0.5469 0.0000 0.5469 (  2806 PWs)   bands (ev):

   -49.9795 -21.9100 -21.9036 -21.9009 -13.1752  -1.9811  -1.7351  -1.3599

          k = 0.0000 0.8203 0.0000 (  2798 PWs)   bands (ev):

   -49.9795 -21.9120 -21.9022 -21.9022 -13.1581  -2.1300  -1.5080  -1.5080

          k = 0.8203 0.0000 0.8203 (  2806 PWs)   bands (ev):

   -49.9795 -21.9122 -21.9031 -21.9022 -13.1497  -2.1054  -1.6242  -1.4981

          k =-0.2734 0.5469-0.0000 (  2801 PWs)   bands (ev):

   -49.9796 -21.9084 -21.9020 -21.9006 -13.2044  -1.9533  -1.5163  -1.3615

          k = 0.5469-0.2734 0.8203 (  2791 PWs)   bands (ev):

   -49.9795 -21.9105 -21.9031 -21.9012 -13.1706  -2.0462  -1.6442  -1.4147

          k = 0.6836-0.1367 0.9570 (  2797 PWs)   bands (ev):

   -49.9795 -21.9113 -21.9032 -21.9022 -13.1562  -2.0469  -1.6349  -1.5186

          k = 0.5469-0.0000 0.8203 (  2791 PWs)   bands (ev):

   -49.9795 -21.9109 -21.9041 -21.9020 -13.1523  -1.9165  -1.8315  -1.5044

     highest occupied level (ev):    -1.2327

!    total energy              =    -188.83285726 Ry

     total all-electron energy =     -1248.119872 Ry
     estimated scf accuracy    <          7.7E-11 Ry

     The total energy is the sum of the following terms:
     one-electron contribution =     -97.75592757 Ry
     hartree contribution      =      54.41991043 Ry
     xc contribution           =     -25.65600366 Ry
     ewald contribution        =     -59.24474698 Ry
     one-center paw contrib.   =     -60.59608948 Ry

     convergence has been achieved in  16 iterations

     Forces acting on atoms (cartesian axes, Ry/au):

     atom    1 type  1   force =    -0.00000000    0.00000000   -0.00000000
     atom    2 type  2   force =     0.00000000    0.00000000    0.00000000

     Total force =     0.000000     Total SCF correction =     0.000000


     Computing stress (Cartesian axis) and pressure

          total   stress  (Ry/bohr**3)                   (kbar)     P=        0.15
   0.00000103  -0.00000000   0.00000000            0.15       -0.00        0.00
  -0.00000000   0.00000103   0.00000000           -0.00        0.15        0.00
  -0.00000000  -0.00000000   0.00000103           -0.00       -0.00        0.15

     Energy error            =      1.5E-05
     Gradient error          =      5.0E-31
     Cell gradient error     =      1.0E-06

ibrav =      2
 celldm(1) =     11.76603898
Input lattice vectors:
    -0.52247065     0.00000000     0.52247065
     0.00000000     0.52247065     0.52247065
    -0.52247065     0.52247065     0.00000000
New lattice vectors in INITIAL alat:
    -0.52247065     0.00000000     0.52247065
     0.00000000     0.52247065     0.52247065
    -0.52247065     0.52247065     0.00000000
New lattice vectors in NEW alat (for information only):
    -0.50000000     0.00000000     0.50000000
     0.00000000     0.50000000     0.50000000
    -0.50000000     0.50000000     0.00000000
Discrepancy in bohr =     0.000000    0.000000    0.000000

     bfgs converged in   7 scf cycles and   6 bfgs steps
     (criteria: energy <  1.0E-04 Ry, force <  1.0E-03Ry/Bohr, cell <  5.0E-01kbar)

     End of BFGS Geometry Optimization

     Final enthalpy =    -188.8328572558 Ry

     File ./tmp/NaCl.bfgs deleted, as requested
Begin final coordinates
     new unit-cell volume =    407.22165 a.u.^3 (    60.34402 Ang^3 )
     density =      1.60823 g/cm^3

CELL_PARAMETERS (alat= 11.26000000)
  -0.522470648   0.000000000   0.522470648
   0.000000000   0.522470648   0.522470648
  -0.522470648   0.522470648   0.000000000

ATOMIC_POSITIONS (alat)
Na            0.0000000000       -0.0000000000        0.0000000000
Cl            0.2612353238        0.2612353238        0.2612353238
End final coordinates



     Writing output data file ./tmp/NaCl.save/

     Final scf calculation at the relaxed structure.
     The G-vectors are recalculated for the final unit cell
     Results may differ from those at the preceding step.

     G-vector sticks info
     --------------------
     sticks:   dense  smooth     PW     G-vecs:    dense   smooth      PW
     Sum        1159    1147    337                26229    25605    4015



     bravais-lattice index     =            2
     lattice parameter (alat)  =      11.2600  a.u.
     unit-cell volume          =     407.2216 (a.u.)^3
     number of atoms/cell      =            2
     number of atomic types    =            2
     number of electrons       =        16.00
     number of Kohn-Sham states=            8
     kinetic-energy cutoff     =      60.0000  Ry
     charge density cutoff     =     244.0000  Ry
     scf convergence threshold =      1.0E-10
     mixing beta               =       0.7000
     number of iterations used =            8  plain     mixing
     press convergence thresh. =      5.0E-01
     Exchange-correlation= SLA  PW   PBX  PBC
                           (   1   4   3   4   0   0   0)

     celldm(1)=  11.260000  celldm(2)=   0.000000  celldm(3)=   0.000000
     celldm(4)=   0.000000  celldm(5)=   0.000000  celldm(6)=   0.000000

     crystal axes: (cart. coord. in units of alat)
               a(1) = (  -0.522471   0.000000   0.522471 )  
               a(2) = (   0.000000   0.522471   0.522471 )  
               a(3) = (  -0.522471   0.522471   0.000000 )  

     reciprocal axes: (cart. coord. in units 2 pi/alat)
               b(1) = ( -0.956992 -0.956992  0.956992 )  
               b(2) = (  0.956992  0.956992  0.956992 )  
               b(3) = ( -0.956992  0.956992 -0.956992 )  


     PseudoPot. # 1 for Na read from file:
     ../../pseudopotentials/Na.pbe-spn-kjpaw_psl.1.0.0.UPF
     MD5 check sum: 2d3bf706d6c1b56787a12f8ec1fa0108
     Pseudo is Projector augmented-wave + core cor, Zval =  9.0
     Generated using &quot;atomic&quot; code by A. Dal Corso  v.6.3
     Shape of augmentation charge: PSQ
     Using radial grid of 1121 points,  4 beta functions with: 
                l(1) =   0
                l(2) =   0
                l(3) =   1
                l(4) =   1
     Q(r) pseudized with 0 coefficients 


     PseudoPot. # 2 for Cl read from file:
     ../../pseudopotentials/Cl.pbe-n-kjpaw_psl.1.0.0.UPF
     MD5 check sum: 742572be94a3d2fc30b29275f2c5bbd2
     Pseudo is Projector augmented-wave + core cor, Zval =  7.0
     Generated using &quot;atomic&quot; code by A. Dal Corso  v.6.3
     Shape of augmentation charge: PSQ
     Using radial grid of 1157 points,  6 beta functions with: 
                l(1) =   0
                l(2) =   0
                l(3) =   1
                l(4) =   1
                l(5) =   2
                l(6) =   2
     Q(r) pseudized with 0 coefficients 


     atomic species   valence    mass     pseudopotential
        Na             9.00    22.98977     Na( 1.00)
        Cl             7.00    35.45320     Cl( 1.00)

     24 Sym. Ops. (no inversion) found



   Cartesian axes

     site n.     atom                  positions (alat units)
         1           Na  tau(   1) = (   0.0000000  -0.0000000   0.0000000  )
         2           Cl  tau(   2) = (   0.2612353   0.2612353   0.2612353  )

     number of k points=    20
                       cart. coord. in units 2pi/alat
        k(    1) = (   0.0000000   0.0000000   0.0000000), wk =   0.0058309
        k(    2) = (  -0.1367131   0.1367131  -0.1367131), wk =   0.0466472
        k(    3) = (  -0.2734262   0.2734262  -0.2734262), wk =   0.0466472
        k(    4) = (  -0.4101392   0.4101392  -0.4101392), wk =   0.0466472
        k(    5) = (   0.0000000   0.2734262   0.0000000), wk =   0.0349854
        k(    6) = (  -0.1367131   0.4101392  -0.1367131), wk =   0.1399417
        k(    7) = (  -0.2734262   0.5468523  -0.2734262), wk =   0.1399417
        k(    8) = (   0.5468523  -0.2734262   0.5468523), wk =   0.1399417
        k(    9) = (   0.4101392  -0.1367131   0.4101392), wk =   0.1399417
        k(   10) = (   0.2734262  -0.0000000   0.2734262), wk =   0.0699708
        k(   11) = (   0.0000000   0.5468523   0.0000000), wk =   0.0349854
        k(   12) = (  -0.1367131   0.6835654  -0.1367131), wk =   0.1399417
        k(   13) = (   0.6835654  -0.1367131   0.6835654), wk =   0.1399417
        k(   14) = (   0.5468523   0.0000000   0.5468523), wk =   0.0699708
        k(   15) = (   0.0000000   0.8202785   0.0000000), wk =   0.0349854
        k(   16) = (   0.8202785   0.0000000   0.8202785), wk =   0.0699708
        k(   17) = (  -0.2734262   0.5468523  -0.0000000), wk =   0.1399417
        k(   18) = (   0.5468523  -0.2734262   0.8202785), wk =   0.2798834
        k(   19) = (   0.6835654  -0.1367131   0.9569916), wk =   0.1399417
        k(   20) = (   0.5468523  -0.0000000   0.8202785), wk =   0.1399417

     Dense  grid:    26229 G-vectors     FFT dimensions: (  45,  45,  45)

     Smooth grid:    25605 G-vectors     FFT dimensions: (  45,  45,  45)

     Estimated max dynamical RAM per process >     113.23 MB

     Check: negative core charge=   -0.000005

     Initial potential from superposition of free atoms

     starting charge   15.99370, renormalised to   16.00000
     Starting wfcs are    9 randomized atomic wfcs
     Checking if some PAW data can be deallocated... 

     total cpu time spent up to now is      363.9 secs

     Self-consistent Calculation

     iteration #  1     ecut=    60.00 Ry     beta= 0.70
     Davidson diagonalization with overlap
     ethr =  1.00E-06,  avg # of iterations = 10.7

     total cpu time spent up to now is      370.1 secs

     total energy              =    -188.80964303 Ry
     estimated scf accuracy    <       0.07803476 Ry

     iteration #  2     ecut=    60.00 Ry     beta= 0.70
     Davidson diagonalization with overlap
     ethr =  4.88E-04,  avg # of iterations =  2.0

     total cpu time spent up to now is      372.2 secs

     total energy              =    -188.83130969 Ry
     estimated scf accuracy    <       0.01766235 Ry

     iteration #  3     ecut=    60.00 Ry     beta= 0.70
     Davidson diagonalization with overlap
     ethr =  1.10E-04,  avg # of iterations =  2.0

     total cpu time spent up to now is      374.3 secs

     total energy              =    -188.83406630 Ry
     estimated scf accuracy    <       0.00070446 Ry

     iteration #  4     ecut=    60.00 Ry     beta= 0.70
     Davidson diagonalization with overlap
     ethr =  4.40E-06,  avg # of iterations =  3.0

     total cpu time spent up to now is      376.7 secs

     total energy              =    -188.83472276 Ry
     estimated scf accuracy    <       0.00080102 Ry

     iteration #  5     ecut=    60.00 Ry     beta= 0.70
     Davidson diagonalization with overlap
     ethr =  4.40E-06,  avg # of iterations =  2.0

     total cpu time spent up to now is      378.8 secs

     total energy              =    -188.83476768 Ry
     estimated scf accuracy    <       0.00006306 Ry

     iteration #  6     ecut=    60.00 Ry     beta= 0.70
     Davidson diagonalization with overlap
     ethr =  3.94E-07,  avg # of iterations =  3.5

     total cpu time spent up to now is      381.1 secs

     total energy              =    -188.83479322 Ry
     estimated scf accuracy    <       0.00000285 Ry

     iteration #  7     ecut=    60.00 Ry     beta= 0.70
     Davidson diagonalization with overlap
     ethr =  1.78E-08,  avg # of iterations =  3.1

     total cpu time spent up to now is      383.6 secs

     total energy              =    -188.83479344 Ry
     estimated scf accuracy    <       0.00000127 Ry

     iteration #  8     ecut=    60.00 Ry     beta= 0.70
     Davidson diagonalization with overlap
     ethr =  7.95E-09,  avg # of iterations =  2.2

     total cpu time spent up to now is      385.7 secs

     total energy              =    -188.83479379 Ry
     estimated scf accuracy    <          1.1E-09 Ry

     iteration #  9     ecut=    60.00 Ry     beta= 0.70
     Davidson diagonalization with overlap
     c_bands:  1 eigenvalues not converged
     ethr =  7.07E-12,  avg # of iterations = 13.9

     total cpu time spent up to now is      392.4 secs

     total energy              =    -188.83479384 Ry
     estimated scf accuracy    <          3.3E-09 Ry

     iteration # 10     ecut=    60.00 Ry     beta= 0.70
     Davidson diagonalization with overlap
     ethr =  7.07E-12,  avg # of iterations =  2.0

     total cpu time spent up to now is      394.5 secs

     total energy              =    -188.83479384 Ry
     estimated scf accuracy    <          1.2E-09 Ry

     iteration # 11     ecut=    60.00 Ry     beta= 0.70
     Davidson diagonalization with overlap
     ethr =  7.07E-12,  avg # of iterations =  3.0

     total cpu time spent up to now is      397.1 secs

     End of self-consistent calculation

          k = 0.0000 0.0000 0.0000 (  3143 PWs)   bands (ev):

   -49.9839 -21.9026 -21.9026 -21.9026 -13.3250  -1.2335  -1.2335  -1.2335

          k =-0.1367 0.1367-0.1367 (  3209 PWs)   bands (ev):

   -49.9840 -21.9057 -21.9033 -21.9033 -13.3005  -1.4692  -1.2509  -1.2509

          k =-0.2734 0.2734-0.2734 (  3194 PWs)   bands (ev):

   -49.9839 -21.9106 -21.9039 -21.9039 -13.2446  -1.9116  -1.2890  -1.2890

          k =-0.4101 0.4101-0.4101 (  3190 PWs)   bands (ev):

   -49.9839 -21.9148 -21.9043 -21.9043 -13.1992  -2.2104  -1.3189  -1.3189

          k = 0.0000 0.2734 0.0000 (  3203 PWs)   bands (ev):

   -49.9840 -21.9058 -21.9037 -21.9037 -13.2923  -1.4749  -1.2905  -1.2905

          k =-0.1367 0.4101-0.1367 (  3207 PWs)   bands (ev):

   -49.9840 -21.9096 -21.9045 -21.9044 -13.2470  -1.7975  -1.3419  -1.3391

          k =-0.2734 0.5469-0.2734 (  3202 PWs)   bands (ev):

   -49.9839 -21.9138 -21.9053 -21.9049 -13.1981  -2.0969  -1.4159  -1.3668

          k = 0.5469-0.2734 0.5469 (  3191 PWs)   bands (ev):

   -49.9838 -21.9150 -21.9057 -21.9046 -13.1829  -2.1767  -1.4743  -1.3474

          k = 0.4101-0.1367 0.4101 (  3179 PWs)   bands (ev):

   -49.9838 -21.9122 -21.9054 -21.9040 -13.2131  -2.0067  -1.4610  -1.2977

          k = 0.2734-0.0000 0.2734 (  3206 PWs)   bands (ev):

   -49.9840 -21.9083 -21.9045 -21.9035 -13.2655  -1.6979  -1.3622  -1.2543

          k = 0.0000 0.5469 0.0000 (  3198 PWs)   bands (ev):

   -49.9839 -21.9113 -21.9052 -21.9052 -13.2185  -1.8846  -1.4140  -1.4140

          k =-0.1367 0.6836-0.1367 (  3192 PWs)   bands (ev):

   -49.9838 -21.9140 -21.9061 -21.9057 -13.1802  -2.0377  -1.5269  -1.4516

          k = 0.6836-0.1367 0.6836 (  3197 PWs)   bands (ev):

   -49.9838 -21.9149 -21.9075 -21.9056 -13.1613  -2.0320  -1.7220  -1.4286

          k = 0.5469 0.0000 0.5469 (  3194 PWs)   bands (ev):

   -49.9838 -21.9139 -21.9076 -21.9048 -13.1760  -1.9823  -1.7360  -1.3608

          k = 0.0000 0.8203 0.0000 (  3218 PWs)   bands (ev):

   -49.9839 -21.9160 -21.9064 -21.9064 -13.1589  -2.1306  -1.5091  -1.5091

          k = 0.8203 0.0000 0.8203 (  3214 PWs)   bands (ev):

   -49.9838 -21.9162 -21.9071 -21.9065 -13.1505  -2.1059  -1.6254  -1.4992

          k =-0.2734 0.5469-0.0000 (  3190 PWs)   bands (ev):

   -49.9839 -21.9122 -21.9059 -21.9047 -13.2052  -1.9542  -1.5173  -1.3625

          k = 0.5469-0.2734 0.8203 (  3194 PWs)   bands (ev):

   -49.9838 -21.9144 -21.9071 -21.9053 -13.1715  -2.0473  -1.6451  -1.4158

          k = 0.6836-0.1367 0.9570 (  3187 PWs)   bands (ev):

   -49.9838 -21.9152 -21.9071 -21.9060 -13.1570  -2.0476  -1.6359  -1.5199

          k = 0.5469-0.0000 0.8203 (  3201 PWs)   bands (ev):

   -49.9838 -21.9149 -21.9081 -21.9060 -13.1532  -1.9173  -1.8326  -1.5056

     highest occupied level (ev):    -1.2335

!    total energy              =    -188.83479384 Ry

     total all-electron energy =     -1248.121809 Ry
     estimated scf accuracy    <          1.0E-11 Ry

     The total energy is the sum of the following terms:
     one-electron contribution =     -97.75624475 Ry
     hartree contribution      =      54.42127604 Ry
     xc contribution           =     -25.65628569 Ry
     ewald contribution        =     -59.24474693 Ry
     one-center paw contrib.   =     -60.59879251 Ry

     convergence has been achieved in  11 iterations

     Forces acting on atoms (cartesian axes, Ry/au):

     atom    1 type  1   force =     0.00000000   -0.00000000    0.00000000
     atom    2 type  2   force =    -0.00000000   -0.00000000    0.00000000

     Total force =     0.000000     Total SCF correction =     0.000000


     Computing stress (Cartesian axis) and pressure

          total   stress  (Ry/bohr**3)                   (kbar)     P=       -3.10
  -0.00002106   0.00000000   0.00000000           -3.10        0.00        0.00
   0.00000000  -0.00002106   0.00000000            0.00       -3.10        0.00
   0.00000000   0.00000000  -0.00002106            0.00        0.00       -3.10


     Writing output data file ./tmp/NaCl.save/

     init_run     :     10.78s CPU     10.88s WALL (       2 calls)
     electrons    :    311.49s CPU    318.97s WALL (       8 calls)
     update_pot   :     20.72s CPU     20.72s WALL (       6 calls)
     forces       :     16.17s CPU     16.32s WALL (       8 calls)
     stress       :     34.66s CPU     35.13s WALL (       8 calls)

     Called by init_run:
     wfcinit      :      1.22s CPU      1.22s WALL (       2 calls)
     potinit      :      2.46s CPU      2.47s WALL (       2 calls)
     hinit0       :      6.96s CPU      6.97s WALL (       2 calls)

     Called by electrons:
     c_bands      :    215.83s CPU    217.01s WALL (     162 calls)
     sum_band     :     44.22s CPU     47.55s WALL (     162 calls)
     v_of_rho     :      6.37s CPU      6.38s WALL (     169 calls)
     newd         :      7.58s CPU     10.68s WALL (     169 calls)
     PAW_pot      :     39.20s CPU     39.21s WALL (     175 calls)
     mix_rho      :      1.45s CPU      1.45s WALL (     162 calls)

     Called by c_bands:
     init_us_2    :      7.16s CPU      7.22s WALL (    6960 calls)
     cegterg      :    199.16s CPU    200.23s WALL (    3240 calls)

     Called by *egterg:
     cdiaghg      :      0.95s CPU      0.96s WALL (   12224 calls)
     h_psi        :    155.51s CPU    156.35s WALL (   12404 calls)
     s_psi        :     11.45s CPU     11.53s WALL (   12404 calls)
     g_psi        :      2.21s CPU      2.23s WALL (    9124 calls)

     Called by h_psi:
     h_psi:calbec :     11.07s CPU     11.13s WALL (   12404 calls)
     vloc_psi     :    132.41s CPU    133.12s WALL (   12404 calls)
     add_vuspsi   :     11.52s CPU     11.60s WALL (   12404 calls)

     General routines
     calbec       :     15.74s CPU     15.83s WALL (   16564 calls)
     fft          :      3.66s CPU      3.67s WALL (    2388 calls)
     ffts         :      0.48s CPU      0.49s WALL (     331 calls)
     fftw         :    142.61s CPU    143.40s WALL (  179750 calls)
     interpolate  :      0.54s CPU      0.55s WALL (     169 calls)

     Parallel routines

     PWSCF        :   6m36.03s CPU   6m44.35s WALL


   This run was terminated on:  22: 2:59  11Nov2022            

=------------------------------------------------------------------------------=
   JOB DONE.
=------------------------------------------------------------------------------=
