
     Program PWSCF v.6.7MaX starts on 12Nov2022 at 14:37:55 

     This program is part of the open-source Quantum ESPRESSO suite
     for quantum simulation of materials; please cite
         "P. Giannozzi et al., J. Phys.:Condens. Matter 21 395502 (2009);
         "P. Giannozzi et al., J. Phys.:Condens. Matter 29 465901 (2017);
          URL http://www.quantum-espresso.org", 
     in publications or presentations arising from this work. More details at
     http://www.quantum-espresso.org/quote

     Parallel version (MPI), running on     1 processors

     MPI processes distributed on     1 nodes
     Waiting for input...
     Reading input from standard input
     Message from routine read_cards :
     DEPRECATED: no units specified in ATOMIC_POSITIONS card
     Message from routine read_cards :
     ATOMIC_POSITIONS: units set to alat

     Current dimensions of program PWSCF are:
     Max number of different atomic species (ntypx) = 10
     Max number of k-points (npk) =  40000
     Max angular momentum in pseudopotentials (lmaxx) =  3
     file Na.pbe-spn-kjpaw_psl.1.0.0.UPF: wavefunction(s)  2P renormalized
     file Cl.pbe-n-kjpaw_psl.1.0.0.UPF: wavefunction(s)  3S 3P renormalized

     Subspace diagonalization in iterative solution of the eigenvalue problem:
     a serial algorithm will be used


     G-vector sticks info
     --------------------
     sticks:   dense  smooth     PW     G-vecs:    dense   smooth      PW
     Sum         955     931    283                19579    18907    3119



     bravais-lattice index     =            2
     lattice parameter (alat)  =      10.6392  a.u.
     unit-cell volume          =     301.0654 (a.u.)^3
     number of atoms/cell      =            2
     number of atomic types    =            2
     number of electrons       =        16.00
     number of Kohn-Sham states=            8
     kinetic-energy cutoff     =      60.0000  Ry
     charge density cutoff     =     244.0000  Ry
     scf convergence threshold =      1.0E-08
     mixing beta               =       0.7000
     number of iterations used =            8  plain     mixing
     energy convergence thresh.=      1.0E-04
     force convergence thresh. =      1.0E-03
     press convergence thresh. =      5.0E-01
     Exchange-correlation= SLA  PW   PBX  PBC
                           (   1   4   3   4   0   0   0)
     nstep                     =           50


     celldm(1)=  10.639150  celldm(2)=   0.000000  celldm(3)=   0.000000
     celldm(4)=   0.000000  celldm(5)=   0.000000  celldm(6)=   0.000000

     crystal axes: (cart. coord. in units of alat)
               a(1) = (  -0.500000   0.000000   0.500000 )  
               a(2) = (   0.000000   0.500000   0.500000 )  
               a(3) = (  -0.500000   0.500000   0.000000 )  

     reciprocal axes: (cart. coord. in units 2 pi/alat)
               b(1) = ( -1.000000 -1.000000  1.000000 )  
               b(2) = (  1.000000  1.000000  1.000000 )  
               b(3) = ( -1.000000  1.000000 -1.000000 )  


     PseudoPot. # 1 for Na read from file:
     ../../pseudopotentials/Na.pbe-spn-kjpaw_psl.1.0.0.UPF
     MD5 check sum: 2d3bf706d6c1b56787a12f8ec1fa0108
     Pseudo is Projector augmented-wave + core cor, Zval =  9.0
     Generated using &quot;atomic&quot; code by A. Dal Corso  v.6.3
     Shape of augmentation charge: PSQ
     Using radial grid of 1121 points,  4 beta functions with: 
                l(1) =   0
                l(2) =   0
                l(3) =   1
                l(4) =   1
     Q(r) pseudized with 0 coefficients 


     PseudoPot. # 2 for Cl read from file:
     ../../pseudopotentials/Cl.pbe-n-kjpaw_psl.1.0.0.UPF
     MD5 check sum: 742572be94a3d2fc30b29275f2c5bbd2
     Pseudo is Projector augmented-wave + core cor, Zval =  7.0
     Generated using &quot;atomic&quot; code by A. Dal Corso  v.6.3
     Shape of augmentation charge: PSQ
     Using radial grid of 1157 points,  6 beta functions with: 
                l(1) =   0
                l(2) =   0
                l(3) =   1
                l(4) =   1
                l(5) =   2
                l(6) =   2
     Q(r) pseudized with 0 coefficients 


     atomic species   valence    mass     pseudopotential
        Na             9.00    22.98977     Na( 1.00)
        Cl             7.00    35.45320     Cl( 1.00)

     48 Sym. Ops., with inversion, found



   Cartesian axes

     site n.     atom                  positions (alat units)
         1           Na  tau(   1) = (   0.0000000   0.0000000   0.0000000  )
         2           Cl  tau(   2) = (   0.5000000   0.0000000   0.0000000  )

     number of k points=    20
                       cart. coord. in units 2pi/alat
        k(    1) = (   0.0000000   0.0000000   0.0000000), wk =   0.0058309
        k(    2) = (  -0.1428571   0.1428571  -0.1428571), wk =   0.0466472
        k(    3) = (  -0.2857143   0.2857143  -0.2857143), wk =   0.0466472
        k(    4) = (  -0.4285714   0.4285714  -0.4285714), wk =   0.0466472
        k(    5) = (   0.0000000   0.2857143   0.0000000), wk =   0.0349854
        k(    6) = (  -0.1428571   0.4285714  -0.1428571), wk =   0.1399417
        k(    7) = (  -0.2857143   0.5714286  -0.2857143), wk =   0.1399417
        k(    8) = (   0.5714286  -0.2857143   0.5714286), wk =   0.1399417
        k(    9) = (   0.4285714  -0.1428571   0.4285714), wk =   0.1399417
        k(   10) = (   0.2857143  -0.0000000   0.2857143), wk =   0.0699708
        k(   11) = (   0.0000000   0.5714286   0.0000000), wk =   0.0349854
        k(   12) = (  -0.1428571   0.7142857  -0.1428571), wk =   0.1399417
        k(   13) = (   0.7142857  -0.1428571   0.7142857), wk =   0.1399417
        k(   14) = (   0.5714286   0.0000000   0.5714286), wk =   0.0699708
        k(   15) = (   0.0000000   0.8571429   0.0000000), wk =   0.0349854
        k(   16) = (   0.8571429  -0.0000000   0.8571429), wk =   0.0699708
        k(   17) = (  -0.2857143   0.5714286   0.0000000), wk =   0.1399417
        k(   18) = (   0.5714286  -0.2857143   0.8571429), wk =   0.2798834
        k(   19) = (   0.7142857  -0.1428571   1.0000000), wk =   0.1399417
        k(   20) = (   0.5714286   0.0000000   0.8571429), wk =   0.1399417

     Dense  grid:    19579 G-vectors     FFT dimensions: (  40,  40,  40)

     Smooth grid:    18907 G-vectors     FFT dimensions: (  40,  40,  40)

     Estimated max dynamical RAM per process >      85.19 MB

     Check: negative core charge=   -0.000006

     Initial potential from superposition of free atoms

     starting charge   15.99370, renormalised to   16.00000
     Starting wfcs are    9 randomized atomic wfcs
     Checking if some PAW data can be deallocated... 

     total cpu time spent up to now is        5.6 secs

     Self-consistent Calculation

     iteration #  1     ecut=    60.00 Ry     beta= 0.70
     Davidson diagonalization with overlap
     ethr =  1.00E-02,  avg # of iterations =  1.0

     Threshold (ethr) on eigenvalues was too large:
     Diagonalizing with lowered threshold

     Davidson diagonalization with overlap
     ethr =  4.03E-04,  avg # of iterations =  3.0

     total cpu time spent up to now is        9.2 secs

     total energy              =    -188.82519758 Ry
     estimated scf accuracy    <       0.05315694 Ry

     iteration #  2     ecut=    60.00 Ry     beta= 0.70
     Davidson diagonalization with overlap
     ethr =  3.32E-04,  avg # of iterations =  2.6

     total cpu time spent up to now is       11.3 secs

     total energy              =    -188.84199147 Ry
     estimated scf accuracy    <       0.01111626 Ry

     iteration #  3     ecut=    60.00 Ry     beta= 0.70
     Davidson diagonalization with overlap
     ethr =  6.95E-05,  avg # of iterations =  2.1

     total cpu time spent up to now is       13.4 secs

     total energy              =    -188.84375078 Ry
     estimated scf accuracy    <       0.00048007 Ry

     iteration #  4     ecut=    60.00 Ry     beta= 0.70
     Davidson diagonalization with overlap
     ethr =  3.00E-06,  avg # of iterations =  3.9

     total cpu time spent up to now is       15.8 secs

     total energy              =    -188.84420689 Ry
     estimated scf accuracy    <       0.00042601 Ry

     iteration #  5     ecut=    60.00 Ry     beta= 0.70
     Davidson diagonalization with overlap
     ethr =  2.66E-06,  avg # of iterations =  2.0

     total cpu time spent up to now is       17.9 secs

     total energy              =    -188.84424508 Ry
     estimated scf accuracy    <       0.00002579 Ry

     iteration #  6     ecut=    60.00 Ry     beta= 0.70
     Davidson diagonalization with overlap
     ethr =  1.61E-07,  avg # of iterations =  5.0

     total cpu time spent up to now is       20.5 secs

     total energy              =    -188.84426147 Ry
     estimated scf accuracy    <       0.00001633 Ry

     iteration #  7     ecut=    60.00 Ry     beta= 0.70
     Davidson diagonalization with overlap
     ethr =  1.02E-07,  avg # of iterations =  2.0

     total cpu time spent up to now is       22.5 secs

     total energy              =    -188.84426283 Ry
     estimated scf accuracy    <       0.00000142 Ry

     iteration #  8     ecut=    60.00 Ry     beta= 0.70
     Davidson diagonalization with overlap
     ethr =  8.86E-09,  avg # of iterations =  3.5

     total cpu time spent up to now is       25.0 secs

     total energy              =    -188.84426351 Ry
     estimated scf accuracy    <       0.00000006 Ry

     iteration #  9     ecut=    60.00 Ry     beta= 0.70
     Davidson diagonalization with overlap
     ethr =  3.79E-10,  avg # of iterations =  5.3

     total cpu time spent up to now is       28.1 secs

     End of self-consistent calculation

          k = 0.0000 0.0000 0.0000 (  2421 PWs)   bands (ev):

   -47.8977 -19.8092 -19.8092 -19.8092 -11.6645   1.0048   1.0048   1.0048

          k =-0.1429 0.1429-0.1429 (  2355 PWs)   bands (ev):

   -47.8973 -19.8138 -19.8090 -19.8090 -11.6035   0.5370   0.9521   0.9521

          k =-0.2857 0.2857-0.2857 (  2361 PWs)   bands (ev):

   -47.8970 -19.8266 -19.8099 -19.8099 -11.4617  -0.3002   0.8381   0.8381

          k =-0.4286 0.4286-0.4286 (  2380 PWs)   bands (ev):

   -47.8968 -19.8367 -19.8108 -19.8108 -11.3428  -0.8574   0.7508   0.7508

          k = 0.0000 0.2857 0.0000 (  2361 PWs)   bands (ev):

   -47.8973 -19.8137 -19.8101 -19.8101 -11.5853   0.5140   0.8797   0.8797

          k =-0.1429 0.4286-0.1429 (  2369 PWs)   bands (ev):

   -47.8970 -19.8227 -19.8115 -19.8110 -11.4750  -0.0866   0.7519   0.7567

          k =-0.2857 0.5714-0.2857 (  2371 PWs)   bands (ev):

   -47.8967 -19.8324 -19.8125 -19.8121 -11.3515  -0.6439   0.5754   0.6762

          k = 0.5714-0.2857 0.5714 (  2359 PWs)   bands (ev):

   -47.8966 -19.8350 -19.8139 -19.8114 -11.3110  -0.7998   0.4656   0.6931

          k = 0.4286-0.1429 0.4286 (  2367 PWs)   bands (ev):

   -47.8968 -19.8297 -19.8138 -19.8102 -11.3870  -0.4849   0.5132   0.7962

          k = 0.2857-0.0000 0.2857 (  2357 PWs)   bands (ev):

   -47.8971 -19.8201 -19.8117 -19.8089 -11.5174   0.0953   0.7281   0.9133

          k = 0.0000 0.5714 0.0000 (  2373 PWs)   bands (ev):

   -47.8969 -19.8232 -19.8137 -19.8137 -11.4172  -0.2290   0.6208   0.6208

          k =-0.1429 0.7143-0.1429 (  2374 PWs)   bands (ev):

   -47.8966 -19.8277 -19.8160 -19.8147 -11.3299  -0.4937   0.3850   0.5332

          k = 0.7143-0.1429 0.7143 (  2356 PWs)   bands (ev):

   -47.8965 -19.8289 -19.8200 -19.8137 -11.2794  -0.5097   0.0147   0.5528

          k = 0.5714 0.0000 0.5714 (  2361 PWs)   bands (ev):

   -47.8966 -19.8291 -19.8199 -19.8117 -11.3054  -0.4631   0.0169   0.6671

          k = 0.0000 0.8571 0.0000 (  2357 PWs)   bands (ev):

   -47.8965 -19.8280 -19.8163 -19.8163 -11.2939  -0.6194   0.4317   0.4317

          k = 0.8571-0.0000 0.8571 (  2360 PWs)   bands (ev):

   -47.8964 -19.8274 -19.8195 -19.8159 -11.2714  -0.5787   0.1929   0.4400

          k =-0.2857 0.5714 0.0000 (  2375 PWs)   bands (ev):

   -47.8968 -19.8271 -19.8156 -19.8118 -11.3776  -0.3758   0.4182   0.6817

          k = 0.5714-0.2857 0.8571 (  2356 PWs)   bands (ev):

   -47.8965 -19.8301 -19.8178 -19.8133 -11.2974  -0.5572   0.1714   0.5625

          k = 0.7143-0.1429 1.0000 (  2359 PWs)   bands (ev):

   -47.8965 -19.8269 -19.8186 -19.8168 -11.2796  -0.5002   0.1946   0.3670

          k = 0.5714 0.0000 0.8571 (  2358 PWs)   bands (ev):

   -47.8964 -19.8241 -19.8234 -19.8163 -11.2652  -0.2641  -0.2002   0.3847

     highest occupied level (ev):     1.0048

!    total energy              =    -188.84426359 Ry

     total all-electron energy =     -1248.131279 Ry
     estimated scf accuracy    <          6.7E-09 Ry

     The total energy is the sum of the following terms:
     one-electron contribution =     -80.70370506 Ry
     hartree contribution      =      47.06281103 Ry
     xc contribution           =     -25.67636179 Ry
     ewald contribution        =     -68.92828969 Ry
     one-center paw contrib.   =     -60.59871809 Ry

     convergence has been achieved in   9 iterations

     Forces acting on atoms (cartesian axes, Ry/au):

     atom    1 type  1   force =     0.00000000    0.00000000    0.00000000
     atom    2 type  2   force =    -0.00000000   -0.00000000   -0.00000000

     Total force =     0.000000     Total SCF correction =     0.000000


     Computing stress (Cartesian axis) and pressure

          total   stress  (Ry/bohr**3)                   (kbar)     P=        2.49
   0.00001696  -0.00000000  -0.00000000            2.49       -0.00       -0.00
  -0.00000000   0.00001696   0.00000000           -0.00        2.49        0.00
  -0.00000000   0.00000000   0.00001696           -0.00        0.00        2.49


     BFGS Geometry Optimization
     Energy error            =      0.0E+00
     Gradient error          =      1.0E-33
     Cell gradient error     =      1.7E-05


     number of scf cycles    =   1
     number of bfgs steps    =   0

     enthalpy new            =    -188.8442635928 Ry

     new trust radius        =       0.0014711600 bohr
ibrav =      2
 celldm(1) =     10.64366031
Input lattice vectors:
    -0.50021197     0.00000000     0.50021197
    -0.00000000     0.50021197     0.50021197
    -0.50021197     0.50021197     0.00000000
New lattice vectors in INITIAL alat:
    -0.50021197     0.00000000     0.50021197
     0.00000000     0.50021197     0.50021197
    -0.50021197     0.50021197     0.00000000
New lattice vectors in NEW alat (for information only):
    -0.50000000     0.00000000     0.50000000
     0.00000000     0.50000000     0.50000000
    -0.50000000     0.50000000     0.00000000
Discrepancy in bohr =     0.000000    0.000000    0.000000
     new conv_thr            =       0.0000000100 Ry

     new unit-cell volume =    301.44843 a.u.^3 (    44.67005 Ang^3 )
     density =      2.17253 g/cm^3

CELL_PARAMETERS (alat= 10.63915000)
  -0.500211968   0.000000000   0.500211968
   0.000000000   0.500211968   0.500211968
  -0.500211968   0.500211968   0.000000000

ATOMIC_POSITIONS (alat)
Na            0.0000000000        0.0000000000        0.0000000000
Cl            0.5002119676        0.0000000000        0.0000000000



     Writing output data file ./tmp/NaCl.save/
     NEW-OLD atomic charge density approx. for the potential

     Check: negative core charge=   -0.000006
     extrapolated charge   16.02032, renormalised to   16.00000

     total cpu time spent up to now is       39.5 secs

     Self-consistent Calculation

     iteration #  1     ecut=    60.00 Ry     beta= 0.70
     Davidson diagonalization with overlap
     ethr =  1.00E-06,  avg # of iterations =  2.5

     total cpu time spent up to now is       41.8 secs

     total energy              =    -188.84417957 Ry
     estimated scf accuracy    <       0.00005254 Ry

     iteration #  2     ecut=    60.00 Ry     beta= 0.70
     Davidson diagonalization with overlap
     ethr =  3.28E-07,  avg # of iterations =  5.0

     total cpu time spent up to now is       44.8 secs

     total energy              =    -188.84427096 Ry
     estimated scf accuracy    <       0.00009472 Ry

     iteration #  3     ecut=    60.00 Ry     beta= 0.70
     Davidson diagonalization with overlap
     ethr =  3.28E-07,  avg # of iterations =  2.0

     total cpu time spent up to now is       46.9 secs

     total energy              =    -188.84426778 Ry
     estimated scf accuracy    <       0.00002637 Ry

     iteration #  4     ecut=    60.00 Ry     beta= 0.70
     Davidson diagonalization with overlap
     ethr =  1.65E-07,  avg # of iterations =  2.0

     total cpu time spent up to now is       48.9 secs

     total energy              =    -188.84426527 Ry
     estimated scf accuracy    <       0.00000819 Ry

     iteration #  5     ecut=    60.00 Ry     beta= 0.70
     Davidson diagonalization with overlap
     ethr =  5.12E-08,  avg # of iterations =  4.0

     total cpu time spent up to now is       51.3 secs

     total energy              =    -188.84426938 Ry
     estimated scf accuracy    <       0.00000058 Ry

     iteration #  6     ecut=    60.00 Ry     beta= 0.70
     Davidson diagonalization with overlap
     ethr =  3.65E-09,  avg # of iterations =  2.0

     total cpu time spent up to now is       53.4 secs

     total energy              =    -188.84426935 Ry
     estimated scf accuracy    <       0.00000014 Ry

     iteration #  7     ecut=    60.00 Ry     beta= 0.70
     Davidson diagonalization with overlap
     ethr =  8.85E-10,  avg # of iterations =  4.0

     total cpu time spent up to now is       55.9 secs

     total energy              =    -188.84426956 Ry
     estimated scf accuracy    <       0.00000040 Ry

     iteration #  8     ecut=    60.00 Ry     beta= 0.70
     Davidson diagonalization with overlap
     ethr =  8.85E-10,  avg # of iterations =  1.0

     total cpu time spent up to now is       57.7 secs

     total energy              =    -188.84426938 Ry
     estimated scf accuracy    <       0.00000033 Ry

     iteration #  9     ecut=    60.00 Ry     beta= 0.70
     Davidson diagonalization with overlap
     ethr =  8.85E-10,  avg # of iterations =  4.0

     total cpu time spent up to now is       60.2 secs

     total energy              =    -188.84426941 Ry
     estimated scf accuracy    <       0.00000002 Ry

     iteration # 10     ecut=    60.00 Ry     beta= 0.70
     Davidson diagonalization with overlap
     ethr =  1.48E-10,  avg # of iterations =  4.0

     total cpu time spent up to now is       62.4 secs

     End of self-consistent calculation

          k = 0.0000 0.0000 0.0000 (  2421 PWs)   bands (ev):

   -47.9091 -19.8206 -19.8206 -19.8206 -11.6713   0.9951   0.9951   0.9951

          k =-0.1428 0.1428-0.1428 (  2355 PWs)   bands (ev):

   -47.9087 -19.8252 -19.8204 -19.8204 -11.6106   0.5282   0.9426   0.9426

          k =-0.2856 0.2856-0.2856 (  2361 PWs)   bands (ev):

   -47.9084 -19.8379 -19.8212 -19.8212 -11.4693  -0.3072   0.8289   0.8289

          k =-0.4284 0.4284-0.4284 (  2380 PWs)   bands (ev):

   -47.9082 -19.8479 -19.8222 -19.8222 -11.3508  -0.8633   0.7418   0.7418

          k = 0.0000 0.2856 0.0000 (  2361 PWs)   bands (ev):

   -47.9087 -19.8251 -19.8215 -19.8215 -11.5923   0.5054   0.8703   0.8703

          k =-0.1428 0.4284-0.1428 (  2369 PWs)   bands (ev):

   -47.9084 -19.8340 -19.8229 -19.8223 -11.4825  -0.0941   0.7429   0.7476

          k =-0.2856 0.5712-0.2856 (  2371 PWs)   bands (ev):

   -47.9081 -19.8436 -19.8238 -19.8235 -11.3594  -0.6502   0.5668   0.6673

          k = 0.5712-0.2856 0.5712 (  2359 PWs)   bands (ev):

   -47.9080 -19.8462 -19.8253 -19.8227 -11.3191  -0.8058   0.4572   0.6842

          k = 0.4284-0.1428 0.4284 (  2367 PWs)   bands (ev):

   -47.9082 -19.8410 -19.8251 -19.8215 -11.3949  -0.4916   0.5047   0.7872

          k = 0.2856-0.0000 0.2856 (  2357 PWs)   bands (ev):

   -47.9085 -19.8314 -19.8230 -19.8203 -11.5248   0.0874   0.7191   0.9039

          k = 0.0000 0.5712 0.0000 (  2373 PWs)   bands (ev):

   -47.9083 -19.8345 -19.8250 -19.8250 -11.4248  -0.2362   0.6120   0.6120

          k =-0.1428 0.7140-0.1428 (  2374 PWs)   bands (ev):

   -47.9080 -19.8390 -19.8273 -19.8260 -11.3379  -0.5003   0.3767   0.5245

          k = 0.7140-0.1428 0.7140 (  2356 PWs)   bands (ev):

   -47.9079 -19.8401 -19.8313 -19.8250 -11.2876  -0.5162   0.0072   0.5442

          k = 0.5712 0.0000 0.5712 (  2361 PWs)   bands (ev):

   -47.9080 -19.8403 -19.8312 -19.8231 -11.3135  -0.4698   0.0094   0.6582

          k = 0.0000 0.8568 0.0000 (  2357 PWs)   bands (ev):

   -47.9079 -19.8393 -19.8276 -19.8276 -11.3020  -0.6257   0.4233   0.4233

          k = 0.8568 0.0000 0.8568 (  2360 PWs)   bands (ev):

   -47.9078 -19.8387 -19.8308 -19.8272 -11.2796  -0.5851   0.1849   0.4315

          k =-0.2856 0.5712 0.0000 (  2375 PWs)   bands (ev):

   -47.9082 -19.8384 -19.8269 -19.8232 -11.3855  -0.3827   0.4098   0.6728

          k = 0.5712-0.2856 0.8568 (  2356 PWs)   bands (ev):

   -47.9079 -19.8413 -19.8291 -19.8247 -11.3055  -0.5636   0.1636   0.5539

          k = 0.7140-0.1428 0.9996 (  2359 PWs)   bands (ev):

   -47.9079 -19.8382 -19.8299 -19.8281 -11.2878  -0.5068   0.1867   0.3588

          k = 0.5712 0.0000 0.8568 (  2358 PWs)   bands (ev):

   -47.9078 -19.8354 -19.8347 -19.8276 -11.2734  -0.2710  -0.2073   0.3765

     highest occupied level (ev):     0.9951

!    total energy              =    -188.84426942 Ry

     total all-electron energy =     -1248.131284 Ry
     estimated scf accuracy    <          1.9E-09 Ry

     The total energy is the sum of the following terms:
     one-electron contribution =     -80.75085870 Ry
     hartree contribution      =      47.08020370 Ry
     xc contribution           =     -25.67587660 Ry
     ewald contribution        =     -68.89908094 Ry
     one-center paw contrib.   =     -60.59865688 Ry

     convergence has been achieved in  10 iterations

     Forces acting on atoms (cartesian axes, Ry/au):

     atom    1 type  1   force =     0.00000000    0.00000000    0.00000000
     atom    2 type  2   force =     0.00000000    0.00000000    0.00000000

     Total force =     0.000000     Total SCF correction =     0.000000


     Computing stress (Cartesian axis) and pressure

          total   stress  (Ry/bohr**3)                   (kbar)     P=        2.16
   0.00001468   0.00000000  -0.00000000            2.16        0.00       -0.00
   0.00000000   0.00001468   0.00000000            0.00        2.16        0.00
  -0.00000000   0.00000000   0.00001468           -0.00        0.00        2.16

     Energy error            =      5.8E-06
     Gradient error          =      0.0E+00
     Cell gradient error     =      1.5E-05


     number of scf cycles    =   2
     number of bfgs steps    =   1

     enthalpy old            =    -188.8442635928 Ry
     enthalpy new            =    -188.8442694173 Ry

     CASE: enthalpy_new < enthalpy_old


     WARNING: bfgs curvature condition failed, Theta= 0.923
     new trust radius        =       0.0016186189 bohr
ibrav =      2
 celldm(1) =     10.64862165
Input lattice vectors:
    -0.50044513    -0.00000000     0.50044513
     0.00000000     0.50044513     0.50044513
    -0.50044513     0.50044513    -0.00000000
New lattice vectors in INITIAL alat:
    -0.50044513     0.00000000     0.50044513
     0.00000000     0.50044513     0.50044513
    -0.50044513     0.50044513     0.00000000
New lattice vectors in NEW alat (for information only):
    -0.50000000     0.00000000     0.50000000
     0.00000000     0.50000000     0.50000000
    -0.50000000     0.50000000     0.00000000
Discrepancy in bohr =     0.000000    0.000000    0.000000
     new conv_thr            =            1.0E-10 Ry

     new unit-cell volume =    301.87017 a.u.^3 (    44.73254 Ang^3 )
     density =      2.16949 g/cm^3

CELL_PARAMETERS (alat= 10.63915000)
  -0.500445132   0.000000000   0.500445132
   0.000000000   0.500445132   0.500445132
  -0.500445132   0.500445132   0.000000000

ATOMIC_POSITIONS (alat)
Na            0.0000000000        0.0000000000        0.0000000000
Cl            0.5004451320        0.0000000000        0.0000000000



     Writing output data file ./tmp/NaCl.save/
     NEW-OLD atomic charge density approx. for the potential

     Check: negative core charge=   -0.000006
     extrapolated charge   16.02234, renormalised to   16.00000

     total cpu time spent up to now is       71.9 secs

     Self-consistent Calculation

     iteration #  1     ecut=    60.00 Ry     beta= 0.70
     Davidson diagonalization with overlap
     ethr =  1.00E-06,  avg # of iterations =  2.9

     total cpu time spent up to now is       73.8 secs

     total energy              =    -188.84415994 Ry
     estimated scf accuracy    <       0.00006736 Ry

     iteration #  2     ecut=    60.00 Ry     beta= 0.70
     Davidson diagonalization with overlap
     ethr =  4.21E-07,  avg # of iterations =  5.0

     total cpu time spent up to now is       76.4 secs

     total energy              =    -188.84427683 Ry
     estimated scf accuracy    <       0.00012181 Ry

     iteration #  3     ecut=    60.00 Ry     beta= 0.70
     Davidson diagonalization with overlap
     ethr =  4.21E-07,  avg # of iterations =  2.0

     total cpu time spent up to now is       78.4 secs

     total energy              =    -188.84427345 Ry
     estimated scf accuracy    <       0.00003398 Ry

     iteration #  4     ecut=    60.00 Ry     beta= 0.70
     Davidson diagonalization with overlap
     ethr =  2.12E-07,  avg # of iterations =  2.0

     total cpu time spent up to now is       80.4 secs

     total energy              =    -188.84426900 Ry
     estimated scf accuracy    <       0.00001150 Ry

     iteration #  5     ecut=    60.00 Ry     beta= 0.70
     Davidson diagonalization with overlap
     ethr =  7.19E-08,  avg # of iterations =  4.0

     total cpu time spent up to now is       82.7 secs

     total energy              =    -188.84427482 Ry
     estimated scf accuracy    <       0.00000114 Ry

     iteration #  6     ecut=    60.00 Ry     beta= 0.70
     Davidson diagonalization with overlap
     ethr =  7.10E-09,  avg # of iterations =  2.0

     total cpu time spent up to now is       84.2 secs

     total energy              =    -188.84427465 Ry
     estimated scf accuracy    <       0.00000032 Ry

     iteration #  7     ecut=    60.00 Ry     beta= 0.70
     Davidson diagonalization with overlap
     ethr =  1.97E-09,  avg # of iterations =  4.0

     total cpu time spent up to now is       86.5 secs

     total energy              =    -188.84427499 Ry
     estimated scf accuracy    <       0.00000017 Ry

     iteration #  8     ecut=    60.00 Ry     beta= 0.70
     Davidson diagonalization with overlap
     ethr =  1.08E-09,  avg # of iterations =  2.0

     total cpu time spent up to now is       88.5 secs

     total energy              =    -188.84427482 Ry
     estimated scf accuracy    <       0.00000034 Ry

     iteration #  9     ecut=    60.00 Ry     beta= 0.70
     Davidson diagonalization with overlap
     ethr =  1.08E-09,  avg # of iterations =  2.0

     total cpu time spent up to now is       90.6 secs

     total energy              =    -188.84427479 Ry
     estimated scf accuracy    <       0.00000007 Ry

     iteration # 10     ecut=    60.00 Ry     beta= 0.70
     Davidson diagonalization with overlap
     ethr =  4.23E-10,  avg # of iterations =  4.0

     total cpu time spent up to now is       93.1 secs

     total energy              =    -188.84427481 Ry
     estimated scf accuracy    <       0.00000013 Ry

     iteration # 11     ecut=    60.00 Ry     beta= 0.70
     Davidson diagonalization with overlap
     ethr =  4.23E-10,  avg # of iterations =  4.0

     total cpu time spent up to now is       95.0 secs

     total energy              =    -188.84427483 Ry
     estimated scf accuracy    <          3.9E-09 Ry

     iteration # 12     ecut=    60.00 Ry     beta= 0.70
     Davidson diagonalization with overlap
     ethr =  2.47E-11,  avg # of iterations =  2.9

     total cpu time spent up to now is       96.5 secs

     total energy              =    -188.84427483 Ry
     estimated scf accuracy    <          3.2E-09 Ry

     iteration # 13     ecut=    60.00 Ry     beta= 0.70
     Davidson diagonalization with overlap
     ethr =  2.03E-11,  avg # of iterations =  1.0

     total cpu time spent up to now is       97.9 secs

     total energy              =    -188.84427483 Ry
     estimated scf accuracy    <          2.6E-09 Ry

     iteration # 14     ecut=    60.00 Ry     beta= 0.70
     Davidson diagonalization with overlap
     ethr =  1.60E-11,  avg # of iterations =  1.2

     total cpu time spent up to now is       99.3 secs

     total energy              =    -188.84427483 Ry
     estimated scf accuracy    <          2.0E-09 Ry

     iteration # 15     ecut=    60.00 Ry     beta= 0.70
     Davidson diagonalization with overlap
     ethr =  1.23E-11,  avg # of iterations =  1.0

     total cpu time spent up to now is      100.7 secs

     total energy              =    -188.84427483 Ry
     estimated scf accuracy    <          1.7E-09 Ry

     iteration # 16     ecut=    60.00 Ry     beta= 0.70
     Davidson diagonalization with overlap
     ethr =  1.04E-11,  avg # of iterations =  1.0

     total cpu time spent up to now is      102.1 secs

     total energy              =    -188.84427483 Ry
     estimated scf accuracy    <          1.2E-09 Ry

     iteration # 17     ecut=    60.00 Ry     beta= 0.70
     Davidson diagonalization with overlap
     ethr =  7.50E-12,  avg # of iterations =  1.0

     total cpu time spent up to now is      103.5 secs

     total energy              =    -188.84427483 Ry
     estimated scf accuracy    <          1.7E-09 Ry

     iteration # 18     ecut=    60.00 Ry     beta= 0.70
     Davidson diagonalization with overlap
     ethr =  7.50E-12,  avg # of iterations =  1.0

     total cpu time spent up to now is      104.9 secs

     total energy              =    -188.84427483 Ry
     estimated scf accuracy    <          1.2E-09 Ry

     iteration # 19     ecut=    60.00 Ry     beta= 0.70
     Davidson diagonalization with overlap
     ethr =  7.40E-12,  avg # of iterations =  3.8

     total cpu time spent up to now is      106.7 secs

     End of self-consistent calculation

          k = 0.0000 0.0000 0.0000 (  2421 PWs)   bands (ev):

   -47.9219 -19.8335 -19.8335 -19.8335 -11.6786   0.9846   0.9846   0.9846

          k =-0.1427 0.1427-0.1427 (  2355 PWs)   bands (ev):

   -47.9216 -19.8380 -19.8332 -19.8332 -11.6181   0.5188   0.9323   0.9323

          k =-0.2855 0.2855-0.2855 (  2361 PWs)   bands (ev):

   -47.9213 -19.8506 -19.8341 -19.8341 -11.4774  -0.3149   0.8189   0.8189

          k =-0.4282 0.4282-0.4282 (  2380 PWs)   bands (ev):

   -47.9211 -19.8606 -19.8350 -19.8350 -11.3594  -0.8697   0.7321   0.7321

          k = 0.0000 0.2855 0.0000 (  2361 PWs)   bands (ev):

   -47.9215 -19.8379 -19.8343 -19.8343 -11.6000   0.4960   0.8602   0.8602

          k =-0.1427 0.4282-0.1427 (  2369 PWs)   bands (ev):

   -47.9213 -19.8468 -19.8357 -19.8352 -11.4906  -0.1022   0.7331   0.7377

          k =-0.2855 0.5709-0.2855 (  2371 PWs)   bands (ev):

   -47.9210 -19.8563 -19.8367 -19.8363 -11.3680  -0.6571   0.5575   0.6577

          k = 0.5709-0.2855 0.5709 (  2359 PWs)   bands (ev):

   -47.9209 -19.8589 -19.8381 -19.8356 -11.3279  -0.8124   0.4481   0.6746

          k = 0.4282-0.1427 0.4282 (  2367 PWs)   bands (ev):

   -47.9211 -19.8537 -19.8379 -19.8344 -11.4033  -0.4988   0.4955   0.7773

          k = 0.2855-0.0000 0.2855 (  2357 PWs)   bands (ev):

   -47.9214 -19.8442 -19.8358 -19.8332 -11.5327   0.0789   0.7093   0.8937

          k = 0.0000 0.5709 0.0000 (  2373 PWs)   bands (ev):

   -47.9212 -19.8472 -19.8378 -19.8378 -11.4331  -0.2439   0.6024   0.6024

          k =-0.1427 0.7137-0.1427 (  2374 PWs)   bands (ev):

   -47.9209 -19.8517 -19.8402 -19.8388 -11.3465  -0.5075   0.3678   0.5152

          k = 0.7137-0.1427 0.7137 (  2356 PWs)   bands (ev):

   -47.9208 -19.8528 -19.8441 -19.8378 -11.2965  -0.5233  -0.0010   0.5349

          k = 0.5709 0.0000 0.5709 (  2361 PWs)   bands (ev):

   -47.9209 -19.8530 -19.8440 -19.8359 -11.3223  -0.4770   0.0013   0.6487

          k = 0.0000 0.8564 0.0000 (  2357 PWs)   bands (ev):

   -47.9208 -19.8520 -19.8404 -19.8404 -11.3108  -0.6326   0.4141   0.4141

          k = 0.8564 0.0000 0.8564 (  2360 PWs)   bands (ev):

   -47.9207 -19.8514 -19.8436 -19.8401 -11.2885  -0.5920   0.1763   0.4223

          k =-0.2855 0.5709 0.0000 (  2375 PWs)   bands (ev):

   -47.9211 -19.8511 -19.8397 -19.8360 -11.3939  -0.3901   0.4008   0.6632

          k = 0.5709-0.2855 0.8564 (  2356 PWs)   bands (ev):

   -47.9208 -19.8540 -19.8419 -19.8375 -11.3143  -0.5706   0.1552   0.5445

          k = 0.7137-0.1427 0.9991 (  2359 PWs)   bands (ev):

   -47.9208 -19.8509 -19.8427 -19.8409 -11.2966  -0.5139   0.1781   0.3498

          k = 0.5709 0.0000 0.8564 (  2358 PWs)   bands (ev):

   -47.9207 -19.8481 -19.8474 -19.8404 -11.2823  -0.2786  -0.2150   0.3675

     highest occupied level (ev):     0.9846

!    total energy              =    -188.84427483 Ry

     total all-electron energy =     -1248.131290 Ry
     estimated scf accuracy    <          7.3E-11 Ry

     The total energy is the sum of the following terms:
     one-electron contribution =     -80.80253830 Ry
     hartree contribution      =      47.09911013 Ry
     xc contribution           =     -25.67528849 Ry
     ewald contribution        =     -68.86697990 Ry
     one-center paw contrib.   =     -60.59857828 Ry

     convergence has been achieved in  19 iterations

     Forces acting on atoms (cartesian axes, Ry/au):

     atom    1 type  1   force =     0.00000000    0.00000000    0.00000000
     atom    2 type  2   force =     0.00000000    0.00000000    0.00000000

     Total force =     0.000000     Total SCF correction =     0.000000


     Computing stress (Cartesian axis) and pressure

          total   stress  (Ry/bohr**3)                   (kbar)     P=        1.71
   0.00001163   0.00000000   0.00000000            1.71        0.00        0.00
   0.00000000   0.00001163  -0.00000000            0.00        1.71       -0.00
   0.00000000  -0.00000000   0.00001163            0.00       -0.00        1.71

     Energy error            =      5.4E-06
     Gradient error          =      0.0E+00
     Cell gradient error     =      1.2E-05


     number of scf cycles    =   3
     number of bfgs steps    =   2

     enthalpy old            =    -188.8442694173 Ry
     enthalpy new            =    -188.8442748315 Ry

     CASE: enthalpy_new < enthalpy_old

     new trust radius        =       0.0024284942 bohr
ibrav =      2
 celldm(1) =     10.65606366
Input lattice vectors:
    -0.50079488    -0.00000000     0.50079488
     0.00000000     0.50079488     0.50079488
    -0.50079488     0.50079488    -0.00000000
New lattice vectors in INITIAL alat:
    -0.50079488     0.00000000     0.50079488
     0.00000000     0.50079488     0.50079488
    -0.50079488     0.50079488     0.00000000
New lattice vectors in NEW alat (for information only):
    -0.50000000     0.00000000     0.50000000
     0.00000000     0.50000000     0.50000000
    -0.50000000     0.50000000     0.00000000
Discrepancy in bohr =     0.000000    0.000000    0.000000
     new conv_thr            =            1.0E-10 Ry

     new unit-cell volume =    302.50352 a.u.^3 (    44.82640 Ang^3 )
     density =      2.16495 g/cm^3

CELL_PARAMETERS (alat= 10.63915000)
  -0.500794879   0.000000000   0.500794879
   0.000000000   0.500794879   0.500794879
  -0.500794879   0.500794879   0.000000000

ATOMIC_POSITIONS (alat)
Na            0.0000000000        0.0000000000        0.0000000000
Cl            0.5007948785        0.0000000000        0.0000000000



     Writing output data file ./tmp/NaCl.save/
     NEW-OLD atomic charge density approx. for the potential

     Check: negative core charge=   -0.000006
     extrapolated charge   16.03349, renormalised to   16.00000

     total cpu time spent up to now is      115.4 secs

     Self-consistent Calculation

     iteration #  1     ecut=    60.00 Ry     beta= 0.70
     Davidson diagonalization with overlap
     ethr =  1.00E-06,  avg # of iterations =  3.0

     total cpu time spent up to now is      117.3 secs

     total energy              =    -188.84401232 Ry
     estimated scf accuracy    <       0.00015727 Ry

     iteration #  2     ecut=    60.00 Ry     beta= 0.70
     Davidson diagonalization with overlap
     ethr =  9.83E-07,  avg # of iterations =  5.0

     total cpu time spent up to now is      119.6 secs

     total energy              =    -188.84428600 Ry
     estimated scf accuracy    <       0.00028698 Ry

     iteration #  3     ecut=    60.00 Ry     beta= 0.70
     Davidson diagonalization with overlap
     ethr =  9.83E-07,  avg # of iterations =  2.0

     total cpu time spent up to now is      121.2 secs

     total energy              =    -188.84427883 Ry
     estimated scf accuracy    <       0.00008041 Ry

     iteration #  4     ecut=    60.00 Ry     beta= 0.70
     Davidson diagonalization with overlap
     ethr =  5.03E-07,  avg # of iterations =  2.0

     total cpu time spent up to now is      122.7 secs

     total energy              =    -188.84426650 Ry
     estimated scf accuracy    <       0.00002857 Ry

     iteration #  5     ecut=    60.00 Ry     beta= 0.70
     Davidson diagonalization with overlap
     ethr =  1.79E-07,  avg # of iterations =  4.0

     total cpu time spent up to now is      124.7 secs

     total energy              =    -188.84428113 Ry
     estimated scf accuracy    <       0.00000330 Ry

     iteration #  6     ecut=    60.00 Ry     beta= 0.70
     Davidson diagonalization with overlap
     ethr =  2.06E-08,  avg # of iterations =  1.0

     total cpu time spent up to now is      126.1 secs

     total energy              =    -188.84428055 Ry
     estimated scf accuracy    <       0.00000108 Ry

     iteration #  7     ecut=    60.00 Ry     beta= 0.70
     Davidson diagonalization with overlap
     ethr =  6.74E-09,  avg # of iterations =  4.0

     total cpu time spent up to now is      128.0 secs

     total energy              =    -188.84428127 Ry
     estimated scf accuracy    <       0.00000004 Ry

     iteration #  8     ecut=    60.00 Ry     beta= 0.70
     Davidson diagonalization with overlap
     ethr =  2.75E-10,  avg # of iterations =  5.2

     total cpu time spent up to now is      130.4 secs

     total energy              =    -188.84428117 Ry
     estimated scf accuracy    <       0.00000089 Ry

     iteration #  9     ecut=    60.00 Ry     beta= 0.70
     Davidson diagonalization with overlap
     ethr =  2.75E-10,  avg # of iterations =  4.0

     total cpu time spent up to now is      132.5 secs

     total energy              =    -188.84428095 Ry
     estimated scf accuracy    <       0.00000038 Ry

     iteration # 10     ecut=    60.00 Ry     beta= 0.70
     Davidson diagonalization with overlap
     ethr =  2.75E-10,  avg # of iterations =  5.0

     total cpu time spent up to now is      134.9 secs

     total energy              =    -188.84428103 Ry
     estimated scf accuracy    <          4.3E-09 Ry

     iteration # 11     ecut=    60.00 Ry     beta= 0.70
     Davidson diagonalization with overlap
     ethr =  2.69E-11,  avg # of iterations =  1.6

     total cpu time spent up to now is      136.3 secs

     total energy              =    -188.84428102 Ry
     estimated scf accuracy    <          7.8E-09 Ry

     iteration # 12     ecut=    60.00 Ry     beta= 0.70
     Davidson diagonalization with overlap
     ethr =  2.69E-11,  avg # of iterations =  2.0

     total cpu time spent up to now is      137.9 secs

     total energy              =    -188.84428102 Ry
     estimated scf accuracy    <          9.9E-10 Ry

     iteration # 13     ecut=    60.00 Ry     beta= 0.70
     Davidson diagonalization with overlap
     ethr =  6.18E-12,  avg # of iterations =  1.0

     total cpu time spent up to now is      139.3 secs

     total energy              =    -188.84428102 Ry
     estimated scf accuracy    <          1.5E-09 Ry

     iteration # 14     ecut=    60.00 Ry     beta= 0.70
     Davidson diagonalization with overlap
     ethr =  6.18E-12,  avg # of iterations =  2.8

     total cpu time spent up to now is      141.0 secs

     End of self-consistent calculation

          k = 0.0000 0.0000 0.0000 (  2421 PWs)   bands (ev):

   -47.9414 -19.8530 -19.8530 -19.8530 -11.6897   0.9689   0.9689   0.9689

          k =-0.1426 0.1426-0.1426 (  2355 PWs)   bands (ev):

   -47.9411 -19.8574 -19.8527 -19.8527 -11.6295   0.5046   0.9168   0.9168

          k =-0.2853 0.2853-0.2853 (  2361 PWs)   bands (ev):

   -47.9408 -19.8700 -19.8536 -19.8536 -11.4897  -0.3264   0.8039   0.8039

          k =-0.4279 0.4279-0.4279 (  2380 PWs)   bands (ev):

   -47.9406 -19.8798 -19.8545 -19.8545 -11.3725  -0.8794   0.7175   0.7175

          k = 0.0000 0.2853 0.0000 (  2361 PWs)   bands (ev):

   -47.9410 -19.8574 -19.8538 -19.8538 -11.6115   0.4819   0.8449   0.8449

          k =-0.1426 0.4279-0.1426 (  2369 PWs)   bands (ev):

   -47.9408 -19.8661 -19.8552 -19.8546 -11.5027  -0.1144   0.7184   0.7230

          k =-0.2853 0.5705-0.2853 (  2371 PWs)   bands (ev):

   -47.9405 -19.8756 -19.8561 -19.8558 -11.3810  -0.6675   0.5435   0.6433

          k = 0.5705-0.2853 0.5705 (  2359 PWs)   bands (ev):

   -47.9404 -19.8782 -19.8576 -19.8551 -11.3411  -0.8222   0.4345   0.6602

          k = 0.4279-0.1426 0.4279 (  2367 PWs)   bands (ev):

   -47.9406 -19.8730 -19.8574 -19.8539 -11.4160  -0.5097   0.4816   0.7626

          k = 0.2853-0.0000 0.2853 (  2357 PWs)   bands (ev):

   -47.9409 -19.8636 -19.8553 -19.8527 -11.5446   0.0661   0.6946   0.8785

          k = 0.0000 0.5705 0.0000 (  2373 PWs)   bands (ev):

   -47.9407 -19.8666 -19.8573 -19.8573 -11.4456  -0.2556   0.5880   0.5880

          k =-0.1426 0.7132-0.1426 (  2374 PWs)   bands (ev):

   -47.9404 -19.8711 -19.8596 -19.8583 -11.3595  -0.5183   0.3543   0.5011

          k = 0.7132-0.1426 0.7132 (  2356 PWs)   bands (ev):

   -47.9403 -19.8721 -19.8635 -19.8573 -11.3098  -0.5339  -0.0132   0.5208

          k = 0.5705 0.0000 0.5705 (  2361 PWs)   bands (ev):

   -47.9404 -19.8723 -19.8634 -19.8554 -11.3355  -0.4878  -0.0109   0.6343

          k = 0.0000 0.8558 0.0000 (  2357 PWs)   bands (ev):

   -47.9403 -19.8714 -19.8599 -19.8599 -11.3239  -0.6430   0.4003   0.4003

          k = 0.8558 0.0000 0.8558 (  2360 PWs)   bands (ev):

   -47.9402 -19.8708 -19.8630 -19.8595 -11.3018  -0.6025   0.1634   0.4086

          k =-0.2853 0.5705 0.0000 (  2375 PWs)   bands (ev):

   -47.9406 -19.8704 -19.8592 -19.8555 -11.4067  -0.4013   0.3872   0.6488

          k = 0.5705-0.2853 0.8558 (  2356 PWs)   bands (ev):

   -47.9403 -19.8733 -19.8613 -19.8570 -11.3275  -0.5812   0.1425   0.5305

          k = 0.7132-0.1426 0.9984 (  2359 PWs)   bands (ev):

   -47.9403 -19.8703 -19.8621 -19.8603 -11.3099  -0.5246   0.1652   0.3364

          k = 0.5705 0.0000 0.8558 (  2358 PWs)   bands (ev):

   -47.9402 -19.8675 -19.8668 -19.8598 -11.2957  -0.2899  -0.2266   0.3541

     highest occupied level (ev):     0.9689

!    total energy              =    -188.84428102 Ry

     total all-electron energy =     -1248.131296 Ry
     estimated scf accuracy    <          5.6E-11 Ry

     The total energy is the sum of the following terms:
     one-electron contribution =     -80.88033048 Ry
     hartree contribution      =      47.12790677 Ry
     xc contribution           =     -25.67449631 Ry
     ewald contribution        =     -68.81888438 Ry
     one-center paw contrib.   =     -60.59847662 Ry

     convergence has been achieved in  14 iterations

     Forces acting on atoms (cartesian axes, Ry/au):

     atom    1 type  1   force =     0.00000000    0.00000000    0.00000000
     atom    2 type  2   force =    -0.00000000    0.00000000    0.00000000

     Total force =     0.000000     Total SCF correction =     0.000000


     Computing stress (Cartesian axis) and pressure

          total   stress  (Ry/bohr**3)                   (kbar)     P=        1.19
   0.00000807  -0.00000000  -0.00000000            1.19       -0.00       -0.00
  -0.00000000   0.00000807   0.00000000           -0.00        1.19        0.00
  -0.00000000   0.00000000   0.00000807           -0.00        0.00        1.19

     Energy error            =      6.2E-06
     Gradient error          =      1.6E-32
     Cell gradient error     =      8.1E-06


     number of scf cycles    =   4
     number of bfgs steps    =   3

     enthalpy old            =    -188.8442748315 Ry
     enthalpy new            =    -188.8442810213 Ry

     CASE: enthalpy_new < enthalpy_old

     new trust radius        =       0.0036440140 bohr
ibrav =      2
 celldm(1) =     10.66722668
Input lattice vectors:
    -0.50131950     0.00000000     0.50131950
    -0.00000000     0.50131950     0.50131950
    -0.50131950     0.50131950     0.00000000
New lattice vectors in INITIAL alat:
    -0.50131950     0.00000000     0.50131950
     0.00000000     0.50131950     0.50131950
    -0.50131950     0.50131950     0.00000000
New lattice vectors in NEW alat (for information only):
    -0.50000000     0.00000000     0.50000000
     0.00000000     0.50000000     0.50000000
    -0.50000000     0.50000000     0.00000000
Discrepancy in bohr =     0.000000    0.000000    0.000000
     new conv_thr            =            1.0E-10 Ry

     new unit-cell volume =    303.45520 a.u.^3 (    44.96742 Ang^3 )
     density =      2.15816 g/cm^3

CELL_PARAMETERS (alat= 10.63915000)
  -0.501319498   0.000000000   0.501319498
   0.000000000   0.501319498   0.501319498
  -0.501319498   0.501319498   0.000000000

ATOMIC_POSITIONS (alat)
Na            0.0000000000        0.0000000000        0.0000000000
Cl            0.5013194984        0.0000000000        0.0000000000



     Writing output data file ./tmp/NaCl.save/
     NEW-OLD atomic charge density approx. for the potential

     Check: negative core charge=   -0.000006
     extrapolated charge   16.05016, renormalised to   16.00000

     total cpu time spent up to now is      149.7 secs

     Self-consistent Calculation

     iteration #  1     ecut=    60.00 Ry     beta= 0.70
     Davidson diagonalization with overlap
     ethr =  1.00E-06,  avg # of iterations =  3.5

     total cpu time spent up to now is      151.7 secs

     total energy              =    -188.84366877 Ry
     estimated scf accuracy    <       0.00036093 Ry

     iteration #  2     ecut=    60.00 Ry     beta= 0.70
     Davidson diagonalization with overlap
     ethr =  2.26E-06,  avg # of iterations =  5.0

     total cpu time spent up to now is      154.0 secs

     total energy              =    -188.84429768 Ry
     estimated scf accuracy    <       0.00065850 Ry

     iteration #  3     ecut=    60.00 Ry     beta= 0.70
     Davidson diagonalization with overlap
     ethr =  2.26E-06,  avg # of iterations =  2.0

     total cpu time spent up to now is      155.5 secs

     total energy              =    -188.84428054 Ry
     estimated scf accuracy    <       0.00018461 Ry

     iteration #  4     ecut=    60.00 Ry     beta= 0.70
     Davidson diagonalization with overlap
     ethr =  1.15E-06,  avg # of iterations =  2.0

     total cpu time spent up to now is      157.1 secs

     total energy              =    -188.84425413 Ry
     estimated scf accuracy    <       0.00006484 Ry

     iteration #  5     ecut=    60.00 Ry     beta= 0.70
     Davidson diagonalization with overlap
     ethr =  4.05E-07,  avg # of iterations =  4.0

     total cpu time spent up to now is      159.0 secs

     total energy              =    -188.84428590 Ry
     estimated scf accuracy    <       0.00000558 Ry

     iteration #  6     ecut=    60.00 Ry     beta= 0.70
     Davidson diagonalization with overlap
     ethr =  3.49E-08,  avg # of iterations =  2.0

     total cpu time spent up to now is      160.6 secs

     total energy              =    -188.84428516 Ry
     estimated scf accuracy    <       0.00000148 Ry

     iteration #  7     ecut=    60.00 Ry     beta= 0.70
     Davidson diagonalization with overlap
     ethr =  9.27E-09,  avg # of iterations =  4.0

     total cpu time spent up to now is      162.6 secs

     total energy              =    -188.84428666 Ry
     estimated scf accuracy    <       0.00000105 Ry

     iteration #  8     ecut=    60.00 Ry     beta= 0.70
     Davidson diagonalization with overlap
     ethr =  6.57E-09,  avg # of iterations =  1.1

     total cpu time spent up to now is      164.0 secs

     total energy              =    -188.84428610 Ry
     estimated scf accuracy    <       0.00000138 Ry

     iteration #  9     ecut=    60.00 Ry     beta= 0.70
     Davidson diagonalization with overlap
     ethr =  6.57E-09,  avg # of iterations =  2.0

     total cpu time spent up to now is      165.5 secs

     total energy              =    -188.84428589 Ry
     estimated scf accuracy    <       0.00000041 Ry

     iteration # 10     ecut=    60.00 Ry     beta= 0.70
     Davidson diagonalization with overlap
     ethr =  2.54E-09,  avg # of iterations =  3.0

     total cpu time spent up to now is      167.3 secs

     total energy              =    -188.84428600 Ry
     estimated scf accuracy    <          9.3E-10 Ry

     iteration # 11     ecut=    60.00 Ry     beta= 0.70
     Davidson diagonalization with overlap
     ethr =  5.79E-12,  avg # of iterations =  6.0

     total cpu time spent up to now is      169.3 secs

     total energy              =    -188.84428601 Ry
     estimated scf accuracy    <          4.2E-10 Ry

     iteration # 12     ecut=    60.00 Ry     beta= 0.70
     Davidson diagonalization with overlap
     ethr =  2.61E-12,  avg # of iterations =  5.4

     total cpu time spent up to now is      171.7 secs

     total energy              =    -188.84428601 Ry
     estimated scf accuracy    <       0.00000001 Ry

     iteration # 13     ecut=    60.00 Ry     beta= 0.70
     Davidson diagonalization with overlap
     ethr =  2.61E-12,  avg # of iterations =  5.0

     total cpu time spent up to now is      174.0 secs

     total energy              =    -188.84428601 Ry
     estimated scf accuracy    <          2.6E-09 Ry

     iteration # 14     ecut=    60.00 Ry     beta= 0.70
     Davidson diagonalization with overlap
     ethr =  2.61E-12,  avg # of iterations =  4.0

     total cpu time spent up to now is      176.0 secs

     total energy              =    -188.84428601 Ry
     estimated scf accuracy    <          5.2E-10 Ry

     iteration # 15     ecut=    60.00 Ry     beta= 0.70
     Davidson diagonalization with overlap
     ethr =  2.61E-12,  avg # of iterations =  2.0

     total cpu time spent up to now is      177.6 secs

     total energy              =    -188.84428601 Ry
     estimated scf accuracy    <          1.2E-10 Ry

     iteration # 16     ecut=    60.00 Ry     beta= 0.70
     Davidson diagonalization with overlap
     ethr =  7.19E-13,  avg # of iterations =  5.0

     total cpu time spent up to now is      180.0 secs

     total energy              =    -188.84428601 Ry
     estimated scf accuracy    <          3.2E-10 Ry

     iteration # 17     ecut=    60.00 Ry     beta= 0.70
     Davidson diagonalization with overlap
     ethr =  7.19E-13,  avg # of iterations =  3.0

     total cpu time spent up to now is      181.7 secs

     End of self-consistent calculation

          k = 0.0000 0.0000 0.0000 (  2421 PWs)   bands (ev):

   -47.9707 -19.8822 -19.8822 -19.8822 -11.7060   0.9455   0.9455   0.9455

          k =-0.1425 0.1425-0.1425 (  2355 PWs)   bands (ev):

   -47.9703 -19.8866 -19.8820 -19.8820 -11.6464   0.4834   0.8937   0.8937

          k =-0.2850 0.2850-0.2850 (  2361 PWs)   bands (ev):

   -47.9700 -19.8989 -19.8828 -19.8828 -11.5079  -0.3436   0.7816   0.7816

          k =-0.4274 0.4274-0.4274 (  2380 PWs)   bands (ev):

   -47.9698 -19.9087 -19.8837 -19.8837 -11.3918  -0.8938   0.6957   0.6957

          k = 0.0000 0.2850 0.0000 (  2361 PWs)   bands (ev):

   -47.9703 -19.8865 -19.8830 -19.8830 -11.6285   0.4609   0.8222   0.8222

          k =-0.1425 0.4274-0.1425 (  2369 PWs)   bands (ev):

   -47.9701 -19.8952 -19.8844 -19.8838 -11.5208  -0.1325   0.6965   0.7009

          k =-0.2850 0.5699-0.2850 (  2371 PWs)   bands (ev):

   -47.9698 -19.9045 -19.8853 -19.8850 -11.4002  -0.6828   0.5226   0.6218

          k = 0.5699-0.2850 0.5699 (  2359 PWs)   bands (ev):

   -47.9697 -19.9070 -19.8867 -19.8843 -11.3607  -0.8367   0.4142   0.6387

          k = 0.4274-0.1425 0.4274 (  2367 PWs)   bands (ev):

   -47.9699 -19.9019 -19.8866 -19.8831 -11.4349  -0.5259   0.4610   0.7406

          k = 0.2850-0.0000 0.2850 (  2357 PWs)   bands (ev):

   -47.9701 -19.8927 -19.8845 -19.8819 -11.5623   0.0471   0.6728   0.8558

          k = 0.0000 0.5699 0.0000 (  2373 PWs)   bands (ev):

   -47.9699 -19.8956 -19.8865 -19.8865 -11.4642  -0.2729   0.5666   0.5666

          k =-0.1425 0.7124-0.1425 (  2374 PWs)   bands (ev):

   -47.9697 -19.9000 -19.8887 -19.8874 -11.3788  -0.5343   0.3342   0.4802

          k = 0.7124-0.1425 0.7124 (  2356 PWs)   bands (ev):

   -47.9695 -19.9011 -19.8926 -19.8865 -11.3296  -0.5497  -0.0313   0.4999

          k = 0.5699 0.0000 0.5699 (  2361 PWs)   bands (ev):

   -47.9696 -19.9013 -19.8925 -19.8846 -11.3551  -0.5039  -0.0291   0.6130

          k = 0.0000 0.8549 0.0000 (  2357 PWs)   bands (ev):

   -47.9695 -19.9003 -19.8890 -19.8890 -11.3435  -0.6584   0.3798   0.3798

          k = 0.8549 0.0000 0.8549 (  2360 PWs)   bands (ev):

   -47.9695 -19.8998 -19.8920 -19.8886 -11.3216  -0.6180   0.1442   0.3881

          k =-0.2850 0.5699 0.0000 (  2375 PWs)   bands (ev):

   -47.9698 -19.8994 -19.8883 -19.8847 -11.4256  -0.4180   0.3670   0.6273

          k = 0.5699-0.2850 0.8549 (  2356 PWs)   bands (ev):

   -47.9696 -19.9022 -19.8904 -19.8861 -11.3472  -0.5968   0.1235   0.5097

          k = 0.7124-0.1425 0.9974 (  2359 PWs)   bands (ev):

   -47.9695 -19.8992 -19.8912 -19.8895 -11.3297  -0.5404   0.1461   0.3164

          k = 0.5699 0.0000 0.8549 (  2358 PWs)   bands (ev):

   -47.9695 -19.8965 -19.8958 -19.8890 -11.3156  -0.3068  -0.2438   0.3340

     highest occupied level (ev):     0.9455

!    total energy              =    -188.84428601 Ry

     total all-electron energy =     -1248.131301 Ry
     estimated scf accuracy    <          4.8E-11 Ry

     The total energy is the sum of the following terms:
     one-electron contribution =     -80.99679542 Ry
     hartree contribution      =      47.17099300 Ry
     xc contribution           =     -25.67329487 Ry
     ewald contribution        =     -68.74686693 Ry
     one-center paw contrib.   =     -60.59832179 Ry

     convergence has been achieved in  17 iterations

     Forces acting on atoms (cartesian axes, Ry/au):

     atom    1 type  1   force =     0.00000000   -0.00000000   -0.00000000
     atom    2 type  2   force =    -0.00000000    0.00000000   -0.00000000

     Total force =     0.000000     Total SCF correction =     0.000000


     Computing stress (Cartesian axis) and pressure

          total   stress  (Ry/bohr**3)                   (kbar)     P=        0.38
   0.00000261   0.00000000   0.00000000            0.38        0.00        0.00
   0.00000000   0.00000261  -0.00000000            0.00        0.38       -0.00
  -0.00000000  -0.00000000   0.00000261           -0.00       -0.00        0.38

     Energy error            =      5.0E-06
     Gradient error          =      1.2E-32
     Cell gradient error     =      2.6E-06

ibrav =      2
 celldm(1) =     10.66722668
Input lattice vectors:
    -0.50131950     0.00000000     0.50131950
     0.00000000     0.50131950     0.50131950
    -0.50131950     0.50131950     0.00000000
New lattice vectors in INITIAL alat:
    -0.50131950     0.00000000     0.50131950
     0.00000000     0.50131950     0.50131950
    -0.50131950     0.50131950     0.00000000
New lattice vectors in NEW alat (for information only):
    -0.50000000     0.00000000     0.50000000
     0.00000000     0.50000000     0.50000000
    -0.50000000     0.50000000     0.00000000
Discrepancy in bohr =     0.000000    0.000000    0.000000

     bfgs converged in   5 scf cycles and   4 bfgs steps
     (criteria: energy <  1.0E-04 Ry, force <  1.0E-03Ry/Bohr, cell <  5.0E-01kbar)

     End of BFGS Geometry Optimization

     Final enthalpy =    -188.8442860074 Ry

     File ./tmp/NaCl.bfgs deleted, as requested
Begin final coordinates
     new unit-cell volume =    303.45520 a.u.^3 (    44.96742 Ang^3 )
     density =      2.15816 g/cm^3

CELL_PARAMETERS (alat= 10.63915000)
  -0.501319498   0.000000000   0.501319498
   0.000000000   0.501319498   0.501319498
  -0.501319498   0.501319498   0.000000000

ATOMIC_POSITIONS (alat)
Na            0.0000000000        0.0000000000        0.0000000000
Cl            0.5013194984        0.0000000000        0.0000000000
End final coordinates



     Writing output data file ./tmp/NaCl.save/

     Final scf calculation at the relaxed structure.
     The G-vectors are recalculated for the final unit cell
     Results may differ from those at the preceding step.

     G-vector sticks info
     --------------------
     sticks:   dense  smooth     PW     G-vecs:    dense   smooth      PW
     Sum         955     955    283                19579    19027    3119



     bravais-lattice index     =            2
     lattice parameter (alat)  =      10.6392  a.u.
     unit-cell volume          =     303.4552 (a.u.)^3
     number of atoms/cell      =            2
     number of atomic types    =            2
     number of electrons       =        16.00
     number of Kohn-Sham states=            8
     kinetic-energy cutoff     =      60.0000  Ry
     charge density cutoff     =     244.0000  Ry
     scf convergence threshold =      1.0E-10
     mixing beta               =       0.7000
     number of iterations used =            8  plain     mixing
     press convergence thresh. =      5.0E-01
     Exchange-correlation= SLA  PW   PBX  PBC
                           (   1   4   3   4   0   0   0)

     celldm(1)=  10.639150  celldm(2)=   0.000000  celldm(3)=   0.000000
     celldm(4)=   0.000000  celldm(5)=   0.000000  celldm(6)=   0.000000

     crystal axes: (cart. coord. in units of alat)
               a(1) = (  -0.501319   0.000000   0.501319 )  
               a(2) = (   0.000000   0.501319   0.501319 )  
               a(3) = (  -0.501319   0.501319   0.000000 )  

     reciprocal axes: (cart. coord. in units 2 pi/alat)
               b(1) = ( -0.997368 -0.997368  0.997368 )  
               b(2) = (  0.997368  0.997368  0.997368 )  
               b(3) = ( -0.997368  0.997368 -0.997368 )  


     PseudoPot. # 1 for Na read from file:
     ../../pseudopotentials/Na.pbe-spn-kjpaw_psl.1.0.0.UPF
     MD5 check sum: 2d3bf706d6c1b56787a12f8ec1fa0108
     Pseudo is Projector augmented-wave + core cor, Zval =  9.0
     Generated using &quot;atomic&quot; code by A. Dal Corso  v.6.3
     Shape of augmentation charge: PSQ
     Using radial grid of 1121 points,  4 beta functions with: 
                l(1) =   0
                l(2) =   0
                l(3) =   1
                l(4) =   1
     Q(r) pseudized with 0 coefficients 


     PseudoPot. # 2 for Cl read from file:
     ../../pseudopotentials/Cl.pbe-n-kjpaw_psl.1.0.0.UPF
     MD5 check sum: 742572be94a3d2fc30b29275f2c5bbd2
     Pseudo is Projector augmented-wave + core cor, Zval =  7.0
     Generated using &quot;atomic&quot; code by A. Dal Corso  v.6.3
     Shape of augmentation charge: PSQ
     Using radial grid of 1157 points,  6 beta functions with: 
                l(1) =   0
                l(2) =   0
                l(3) =   1
                l(4) =   1
                l(5) =   2
                l(6) =   2
     Q(r) pseudized with 0 coefficients 


     atomic species   valence    mass     pseudopotential
        Na             9.00    22.98977     Na( 1.00)
        Cl             7.00    35.45320     Cl( 1.00)

     48 Sym. Ops., with inversion, found



   Cartesian axes

     site n.     atom                  positions (alat units)
         1           Na  tau(   1) = (   0.0000000   0.0000000   0.0000000  )
         2           Cl  tau(   2) = (   0.5013195   0.0000000   0.0000000  )

     number of k points=    20
                       cart. coord. in units 2pi/alat
        k(    1) = (   0.0000000   0.0000000   0.0000000), wk =   0.0058309
        k(    2) = (  -0.1424811   0.1424811  -0.1424811), wk =   0.0466472
        k(    3) = (  -0.2849623   0.2849623  -0.2849623), wk =   0.0466472
        k(    4) = (  -0.4274434   0.4274434  -0.4274434), wk =   0.0466472
        k(    5) = (   0.0000000   0.2849623   0.0000000), wk =   0.0349854
        k(    6) = (  -0.1424811   0.4274434  -0.1424811), wk =   0.1399417
        k(    7) = (  -0.2849623   0.5699245  -0.2849623), wk =   0.1399417
        k(    8) = (   0.5699245  -0.2849623   0.5699245), wk =   0.1399417
        k(    9) = (   0.4274434  -0.1424811   0.4274434), wk =   0.1399417
        k(   10) = (   0.2849623  -0.0000000   0.2849623), wk =   0.0699708
        k(   11) = (   0.0000000   0.5699245   0.0000000), wk =   0.0349854
        k(   12) = (  -0.1424811   0.7124057  -0.1424811), wk =   0.1399417
        k(   13) = (   0.7124057  -0.1424811   0.7124057), wk =   0.1399417
        k(   14) = (   0.5699245   0.0000000   0.5699245), wk =   0.0699708
        k(   15) = (   0.0000000   0.8548868   0.0000000), wk =   0.0349854
        k(   16) = (   0.8548868   0.0000000   0.8548868), wk =   0.0699708
        k(   17) = (  -0.2849623   0.5699245   0.0000000), wk =   0.1399417
        k(   18) = (   0.5699245  -0.2849623   0.8548868), wk =   0.2798834
        k(   19) = (   0.7124057  -0.1424811   0.9973679), wk =   0.1399417
        k(   20) = (   0.5699245   0.0000000   0.8548868), wk =   0.1399417

     Dense  grid:    19579 G-vectors     FFT dimensions: (  40,  40,  40)

     Smooth grid:    19027 G-vectors     FFT dimensions: (  40,  40,  40)

     Estimated max dynamical RAM per process >      85.55 MB

     Check: negative core charge=   -0.000006

     Initial potential from superposition of free atoms

     starting charge   15.99370, renormalised to   16.00000
     Starting wfcs are    9 randomized atomic wfcs
     Checking if some PAW data can be deallocated... 

     total cpu time spent up to now is      191.2 secs

     Self-consistent Calculation

     iteration #  1     ecut=    60.00 Ry     beta= 0.70
     Davidson diagonalization with overlap
     ethr =  1.00E-06,  avg # of iterations = 10.3

     total cpu time spent up to now is      195.6 secs

     total energy              =    -188.82848265 Ry
     estimated scf accuracy    <       0.05041585 Ry

     iteration #  2     ecut=    60.00 Ry     beta= 0.70
     Davidson diagonalization with overlap
     ethr =  3.15E-04,  avg # of iterations =  2.0

     total cpu time spent up to now is      197.2 secs

     total energy              =    -188.84247073 Ry
     estimated scf accuracy    <       0.00966778 Ry

     iteration #  3     ecut=    60.00 Ry     beta= 0.70
     Davidson diagonalization with overlap
     ethr =  6.04E-05,  avg # of iterations =  2.0

     total cpu time spent up to now is      198.8 secs

     total energy              =    -188.84383785 Ry
     estimated scf accuracy    <       0.00051236 Ry

     iteration #  4     ecut=    60.00 Ry     beta= 0.70
     Davidson diagonalization with overlap
     ethr =  3.20E-06,  avg # of iterations =  2.9

     total cpu time spent up to now is      200.6 secs

     total energy              =    -188.84432739 Ry
     estimated scf accuracy    <       0.00061863 Ry

     iteration #  5     ecut=    60.00 Ry     beta= 0.70
     Davidson diagonalization with overlap
     ethr =  3.20E-06,  avg # of iterations =  2.0

     total cpu time spent up to now is      202.2 secs

     total energy              =    -188.84437275 Ry
     estimated scf accuracy    <       0.00003468 Ry

     iteration #  6     ecut=    60.00 Ry     beta= 0.70
     Davidson diagonalization with overlap
     ethr =  2.17E-07,  avg # of iterations =  3.2

     total cpu time spent up to now is      204.0 secs

     total energy              =    -188.84439256 Ry
     estimated scf accuracy    <       0.00001750 Ry

     iteration #  7     ecut=    60.00 Ry     beta= 0.70
     Davidson diagonalization with overlap
     ethr =  1.09E-07,  avg # of iterations =  1.6

     total cpu time spent up to now is      205.4 secs

     total energy              =    -188.84438958 Ry
     estimated scf accuracy    <       0.00000599 Ry

     iteration #  8     ecut=    60.00 Ry     beta= 0.70
     Davidson diagonalization with overlap
     ethr =  3.75E-08,  avg # of iterations =  2.0

     total cpu time spent up to now is      207.0 secs

     total energy              =    -188.84439146 Ry
     estimated scf accuracy    <       0.00000010 Ry

     iteration #  9     ecut=    60.00 Ry     beta= 0.70
     Davidson diagonalization with overlap
     ethr =  6.39E-10,  avg # of iterations =  4.8

     total cpu time spent up to now is      209.2 secs

     total energy              =    -188.84439154 Ry
     estimated scf accuracy    <       0.00000004 Ry

     iteration # 10     ecut=    60.00 Ry     beta= 0.70
     Davidson diagonalization with overlap
     ethr =  2.50E-10,  avg # of iterations =  3.0

     total cpu time spent up to now is      211.1 secs

     total energy              =    -188.84439155 Ry
     estimated scf accuracy    <          8.2E-09 Ry

     iteration # 11     ecut=    60.00 Ry     beta= 0.70
     Davidson diagonalization with overlap
     ethr =  5.09E-11,  avg # of iterations =  2.2

     total cpu time spent up to now is      212.9 secs

     total energy              =    -188.84439155 Ry
     estimated scf accuracy    <          2.2E-10 Ry

     iteration # 12     ecut=    60.00 Ry     beta= 0.70
     Davidson diagonalization with overlap
     ethr =  1.38E-12,  avg # of iterations =  5.8

     total cpu time spent up to now is      215.3 secs

     total energy              =    -188.84439155 Ry
     estimated scf accuracy    <          1.3E-09 Ry

     iteration # 13     ecut=    60.00 Ry     beta= 0.70
     Davidson diagonalization with overlap
     ethr =  1.38E-12,  avg # of iterations =  5.0

     total cpu time spent up to now is      217.6 secs

     End of self-consistent calculation

          k = 0.0000 0.0000 0.0000 (  2421 PWs)   bands (ev):

   -47.9708 -19.8821 -19.8821 -19.8821 -11.7061   0.9455   0.9455   0.9455

          k =-0.1425 0.1425-0.1425 (  2379 PWs)   bands (ev):

   -47.9706 -19.8868 -19.8822 -19.8822 -11.6465   0.4833   0.8936   0.8936

          k =-0.2850 0.2850-0.2850 (  2379 PWs)   bands (ev):

   -47.9702 -19.8992 -19.8829 -19.8829 -11.5080  -0.3436   0.7816   0.7816

          k =-0.4274 0.4274-0.4274 (  2383 PWs)   bands (ev):

   -47.9700 -19.9086 -19.8837 -19.8837 -11.3919  -0.8939   0.6957   0.6957

          k = 0.0000 0.2850 0.0000 (  2381 PWs)   bands (ev):

   -47.9705 -19.8868 -19.8832 -19.8832 -11.6286   0.4608   0.8221   0.8221

          k =-0.1425 0.4274-0.1425 (  2385 PWs)   bands (ev):

   -47.9703 -19.8953 -19.8845 -19.8840 -11.5209  -0.1326   0.6965   0.7009

          k =-0.2850 0.5699-0.2850 (  2392 PWs)   bands (ev):

   -47.9700 -19.9046 -19.8855 -19.8852 -11.4003  -0.6829   0.5225   0.6217

          k = 0.5699-0.2850 0.5699 (  2379 PWs)   bands (ev):

   -47.9699 -19.9072 -19.8869 -19.8844 -11.3607  -0.8368   0.4141   0.6386

          k = 0.4274-0.1425 0.4274 (  2379 PWs)   bands (ev):

   -47.9701 -19.9020 -19.8866 -19.8832 -11.4350  -0.5259   0.4609   0.7405

          k = 0.2850-0.0000 0.2850 (  2383 PWs)   bands (ev):

   -47.9704 -19.8929 -19.8848 -19.8821 -11.5624   0.0470   0.6727   0.8557

          k = 0.0000 0.5699 0.0000 (  2393 PWs)   bands (ev):

   -47.9701 -19.8957 -19.8867 -19.8867 -11.4642  -0.2730   0.5665   0.5665

          k =-0.1425 0.7124-0.1425 (  2375 PWs)   bands (ev):

   -47.9699 -19.9000 -19.8887 -19.8874 -11.3789  -0.5344   0.3341   0.4802

          k = 0.7124-0.1425 0.7124 (  2381 PWs)   bands (ev):

   -47.9698 -19.9012 -19.8928 -19.8868 -11.3296  -0.5498  -0.0314   0.4998

          k = 0.5699 0.0000 0.5699 (  2369 PWs)   bands (ev):

   -47.9698 -19.9013 -19.8926 -19.8846 -11.3552  -0.5040  -0.0292   0.6129

          k = 0.0000 0.8549 0.0000 (  2374 PWs)   bands (ev):

   -47.9697 -19.9004 -19.8892 -19.8892 -11.3436  -0.6584   0.3797   0.3797

          k = 0.8549 0.0000 0.8549 (  2384 PWs)   bands (ev):

   -47.9697 -19.9000 -19.8922 -19.8889 -11.3217  -0.6181   0.1441   0.3880

          k =-0.2850 0.5699 0.0000 (  2375 PWs)   bands (ev):

   -47.9700 -19.8993 -19.8882 -19.8846 -11.4257  -0.4181   0.3669   0.6273

          k = 0.5699-0.2850 0.8549 (  2384 PWs)   bands (ev):

   -47.9698 -19.9025 -19.8906 -19.8865 -11.3473  -0.5969   0.1234   0.5096

          k = 0.7124-0.1425 0.9974 (  2373 PWs)   bands (ev):

   -47.9697 -19.8994 -19.8913 -19.8895 -11.3297  -0.5406   0.1460   0.3163

          k = 0.5699 0.0000 0.8549 (  2379 PWs)   bands (ev):

   -47.9697 -19.8967 -19.8960 -19.8891 -11.3157  -0.3069  -0.2439   0.3340

     highest occupied level (ev):     0.9455

!    total energy              =    -188.84439155 Ry

     total all-electron energy =     -1248.131407 Ry
     estimated scf accuracy    <          1.1E-11 Ry

     The total energy is the sum of the following terms:
     one-electron contribution =     -80.99680104 Ry
     hartree contribution      =      47.17102695 Ry
     xc contribution           =     -25.67328463 Ry
     ewald contribution        =     -68.74686693 Ry
     one-center paw contrib.   =     -60.59846590 Ry

     convergence has been achieved in  13 iterations

     Forces acting on atoms (cartesian axes, Ry/au):

     atom    1 type  1   force =    -0.00000000    0.00000000   -0.00000000
     atom    2 type  2   force =    -0.00000000   -0.00000000    0.00000000

     Total force =     0.000000     Total SCF correction =     0.000000


     Computing stress (Cartesian axis) and pressure

          total   stress  (Ry/bohr**3)                   (kbar)     P=        0.27
   0.00000183  -0.00000000  -0.00000000            0.27       -0.00       -0.00
  -0.00000000   0.00000183   0.00000000           -0.00        0.27        0.00
  -0.00000000   0.00000000   0.00000183           -0.00        0.00        0.27


     Writing output data file ./tmp/NaCl.save/

     init_run     :      9.47s CPU      9.55s WALL (       2 calls)
     electrons    :    160.55s CPU    164.11s WALL (       6 calls)
     update_pot   :     12.85s CPU     12.85s WALL (       4 calls)
     forces       :     11.25s CPU     11.39s WALL (       6 calls)
     stress       :     23.17s CPU     23.49s WALL (       6 calls)

     Called by init_run:
     wfcinit      :      0.98s CPU      0.98s WALL (       2 calls)
     potinit      :      2.08s CPU      2.10s WALL (       2 calls)
     hinit0       :      6.28s CPU      6.28s WALL (       2 calls)

     Called by electrons:
     c_bands      :    110.52s CPU    111.07s WALL (      83 calls)
     sum_band     :     22.52s CPU     24.14s WALL (      83 calls)
     v_of_rho     :      3.48s CPU      3.50s WALL (      88 calls)
     newd         :      3.58s CPU      5.09s WALL (      88 calls)
     PAW_pot      :     22.28s CPU     22.29s WALL (      92 calls)
     mix_rho      :      0.64s CPU      0.64s WALL (      83 calls)

     Called by c_bands:
     init_us_2    :      3.44s CPU      3.47s WALL (    3680 calls)
     cegterg      :    102.88s CPU    103.37s WALL (    1660 calls)

     Called by *egterg:
     cdiaghg      :      0.57s CPU      0.58s WALL (    6683 calls)
     h_psi        :     82.03s CPU     82.43s WALL (    6823 calls)
     s_psi        :      5.50s CPU      5.52s WALL (    6823 calls)
     g_psi        :      1.05s CPU      1.06s WALL (    5123 calls)

     Called by h_psi:
     h_psi:calbec :      5.24s CPU      5.27s WALL (    6823 calls)
     vloc_psi     :     71.00s CPU     71.35s WALL (    6823 calls)
     add_vuspsi   :      5.53s CPU      5.56s WALL (    6823 calls)

     General routines
     calbec       :      7.60s CPU      7.64s WALL (    9163 calls)
     fft          :      2.10s CPU      2.10s WALL (    1287 calls)
     ffts         :      0.27s CPU      0.27s WALL (     171 calls)
     fftw         :     76.35s CPU     76.73s WALL (   94634 calls)
     interpolate  :      0.30s CPU      0.30s WALL (      88 calls)

     Parallel routines

     PWSCF        :   3m38.86s CPU   3m43.06s WALL


   This run was terminated on:  14:41:38  12Nov2022            

=------------------------------------------------------------------------------=
   JOB DONE.
=------------------------------------------------------------------------------=
