
     Program PWSCF v.6.7MaX starts on 11Nov2022 at 22:44: 1 

     This program is part of the open-source Quantum ESPRESSO suite
     for quantum simulation of materials; please cite
         "P. Giannozzi et al., J. Phys.:Condens. Matter 21 395502 (2009);
         "P. Giannozzi et al., J. Phys.:Condens. Matter 29 465901 (2017);
          URL http://www.quantum-espresso.org", 
     in publications or presentations arising from this work. More details at
     http://www.quantum-espresso.org/quote

     Parallel version (MPI), running on     1 processors

     MPI processes distributed on     1 nodes
     Waiting for input...
     Reading input from standard input
     Message from routine read_cards :
     DEPRECATED: no units specified in ATOMIC_POSITIONS card
     Message from routine read_cards :
     ATOMIC_POSITIONS: units set to alat

     Current dimensions of program PWSCF are:
     Max number of different atomic species (ntypx) = 10
     Max number of k-points (npk) =  40000
     Max angular momentum in pseudopotentials (lmaxx) =  3
     file Na.pbe-spn-kjpaw_psl.1.0.0.UPF: wavefunction(s)  2P renormalized
     file Cl.pbe-n-kjpaw_psl.1.0.0.UPF: wavefunction(s)  3S 3P renormalized

     Subspace diagonalization in iterative solution of the eigenvalue problem:
     a serial algorithm will be used


     G-vector sticks info
     --------------------
     sticks:   dense  smooth     PW     G-vecs:    dense   smooth      PW
     Sum        1111    1069    313                24213    23505    3839



     bravais-lattice index     =            2
     lattice parameter (alat)  =      11.4606  a.u.
     unit-cell volume          =     376.3212 (a.u.)^3
     number of atoms/cell      =            2
     number of atomic types    =            2
     number of electrons       =        16.00
     number of Kohn-Sham states=            8
     kinetic-energy cutoff     =      60.0000  Ry
     charge density cutoff     =     244.0000  Ry
     scf convergence threshold =      1.0E-08
     mixing beta               =       0.7000
     number of iterations used =            8  plain     mixing
     Exchange-correlation= SLA  PW   PBX  PBC
                           (   1   4   3   4   0   0   0)

     celldm(1)=  11.460570  celldm(2)=   0.000000  celldm(3)=   0.000000
     celldm(4)=   0.000000  celldm(5)=   0.000000  celldm(6)=   0.000000

     crystal axes: (cart. coord. in units of alat)
               a(1) = (  -0.500000   0.000000   0.500000 )  
               a(2) = (   0.000000   0.500000   0.500000 )  
               a(3) = (  -0.500000   0.500000   0.000000 )  

     reciprocal axes: (cart. coord. in units 2 pi/alat)
               b(1) = ( -1.000000 -1.000000  1.000000 )  
               b(2) = (  1.000000  1.000000  1.000000 )  
               b(3) = ( -1.000000  1.000000 -1.000000 )  


     PseudoPot. # 1 for Na read from file:
     ../../pseudopotentials/Na.pbe-spn-kjpaw_psl.1.0.0.UPF
     MD5 check sum: 2d3bf706d6c1b56787a12f8ec1fa0108
     Pseudo is Projector augmented-wave + core cor, Zval =  9.0
     Generated using &quot;atomic&quot; code by A. Dal Corso  v.6.3
     Shape of augmentation charge: PSQ
     Using radial grid of 1121 points,  4 beta functions with: 
                l(1) =   0
                l(2) =   0
                l(3) =   1
                l(4) =   1
     Q(r) pseudized with 0 coefficients 


     PseudoPot. # 2 for Cl read from file:
     ../../pseudopotentials/Cl.pbe-n-kjpaw_psl.1.0.0.UPF
     MD5 check sum: 742572be94a3d2fc30b29275f2c5bbd2
     Pseudo is Projector augmented-wave + core cor, Zval =  7.0
     Generated using &quot;atomic&quot; code by A. Dal Corso  v.6.3
     Shape of augmentation charge: PSQ
     Using radial grid of 1157 points,  6 beta functions with: 
                l(1) =   0
                l(2) =   0
                l(3) =   1
                l(4) =   1
                l(5) =   2
                l(6) =   2
     Q(r) pseudized with 0 coefficients 


     atomic species   valence    mass     pseudopotential
        Na             9.00    22.98977     Na( 1.00)
        Cl             7.00    35.45320     Cl( 1.00)

     24 Sym. Ops. (no inversion) found



   Cartesian axes

     site n.     atom                  positions (alat units)
         1           Na  tau(   1) = (   0.0000000   0.0000000   0.0000000  )
         2           Cl  tau(   2) = (   0.2500000   0.2500000   0.2500000  )

     number of k points=    20
                       cart. coord. in units 2pi/alat
        k(    1) = (   0.0000000   0.0000000   0.0000000), wk =   0.0058309
        k(    2) = (  -0.1428571   0.1428571  -0.1428571), wk =   0.0466472
        k(    3) = (  -0.2857143   0.2857143  -0.2857143), wk =   0.0466472
        k(    4) = (  -0.4285714   0.4285714  -0.4285714), wk =   0.0466472
        k(    5) = (   0.0000000   0.2857143   0.0000000), wk =   0.0349854
        k(    6) = (  -0.1428571   0.4285714  -0.1428571), wk =   0.1399417
        k(    7) = (  -0.2857143   0.5714286  -0.2857143), wk =   0.1399417
        k(    8) = (   0.5714286  -0.2857143   0.5714286), wk =   0.1399417
        k(    9) = (   0.4285714  -0.1428571   0.4285714), wk =   0.1399417
        k(   10) = (   0.2857143  -0.0000000   0.2857143), wk =   0.0699708
        k(   11) = (   0.0000000   0.5714286   0.0000000), wk =   0.0349854
        k(   12) = (  -0.1428571   0.7142857  -0.1428571), wk =   0.1399417
        k(   13) = (   0.7142857  -0.1428571   0.7142857), wk =   0.1399417
        k(   14) = (   0.5714286   0.0000000   0.5714286), wk =   0.0699708
        k(   15) = (   0.0000000   0.8571429   0.0000000), wk =   0.0349854
        k(   16) = (   0.8571429  -0.0000000   0.8571429), wk =   0.0699708
        k(   17) = (  -0.2857143   0.5714286   0.0000000), wk =   0.1399417
        k(   18) = (   0.5714286  -0.2857143   0.8571429), wk =   0.2798834
        k(   19) = (   0.7142857  -0.1428571   1.0000000), wk =   0.1399417
        k(   20) = (   0.5714286   0.0000000   0.8571429), wk =   0.1399417

     Dense  grid:    24213 G-vectors     FFT dimensions: (  45,  45,  45)

     Smooth grid:    23505 G-vectors     FFT dimensions: (  40,  40,  40)

     Estimated max dynamical RAM per process >      97.40 MB

     Check: negative core charge=   -0.000006

     Initial potential from superposition of free atoms

     starting charge   15.99370, renormalised to   16.00000
     Starting wfcs are    9 randomized atomic wfcs
     Checking if some PAW data can be deallocated... 

     total cpu time spent up to now is        2.2 secs

     Self-consistent Calculation

     iteration #  1     ecut=    60.00 Ry     beta= 0.70
     Davidson diagonalization with overlap
     ethr =  1.00E-02,  avg # of iterations =  1.0

     Threshold (ethr) on eigenvalues was too large:
     Diagonalizing with lowered threshold

     Davidson diagonalization with overlap
     ethr =  5.71E-04,  avg # of iterations =  2.0

     total cpu time spent up to now is        5.9 secs

     total energy              =    -188.80178745 Ry
     estimated scf accuracy    <       0.07997171 Ry

     iteration #  2     ecut=    60.00 Ry     beta= 0.70
     Davidson diagonalization with overlap
     ethr =  5.00E-04,  avg # of iterations =  2.5

     total cpu time spent up to now is        8.1 secs

     total energy              =    -188.82851522 Ry
     estimated scf accuracy    <       0.01838790 Ry

     iteration #  3     ecut=    60.00 Ry     beta= 0.70
     Davidson diagonalization with overlap
     ethr =  1.15E-04,  avg # of iterations =  2.0

     total cpu time spent up to now is       10.3 secs

     total energy              =    -188.83165048 Ry
     estimated scf accuracy    <       0.00074180 Ry

     iteration #  4     ecut=    60.00 Ry     beta= 0.70
     Davidson diagonalization with overlap
     ethr =  4.64E-06,  avg # of iterations =  4.9

     total cpu time spent up to now is       13.2 secs

     total energy              =    -188.83227252 Ry
     estimated scf accuracy    <       0.00068503 Ry

     iteration #  5     ecut=    60.00 Ry     beta= 0.70
     Davidson diagonalization with overlap
     ethr =  4.28E-06,  avg # of iterations =  2.0

     total cpu time spent up to now is       14.9 secs

     total energy              =    -188.83236983 Ry
     estimated scf accuracy    <       0.00001942 Ry

     iteration #  6     ecut=    60.00 Ry     beta= 0.70
     Davidson diagonalization with overlap
     ethr =  1.21E-07,  avg # of iterations =  5.2

     total cpu time spent up to now is       17.3 secs

     total energy              =    -188.83238728 Ry
     estimated scf accuracy    <       0.00000937 Ry

     iteration #  7     ecut=    60.00 Ry     beta= 0.70
     Davidson diagonalization with overlap
     ethr =  5.86E-08,  avg # of iterations =  2.0

     total cpu time spent up to now is       19.0 secs

     total energy              =    -188.83238869 Ry
     estimated scf accuracy    <       0.00000043 Ry

     iteration #  8     ecut=    60.00 Ry     beta= 0.70
     Davidson diagonalization with overlap
     ethr =  2.71E-09,  avg # of iterations =  4.3

     total cpu time spent up to now is       21.2 secs

     total energy              =    -188.83238886 Ry
     estimated scf accuracy    <       0.00000011 Ry

     iteration #  9     ecut=    60.00 Ry     beta= 0.70
     Davidson diagonalization with overlap
     ethr =  7.02E-10,  avg # of iterations =  2.8

     total cpu time spent up to now is       23.1 secs

     total energy              =    -188.83238889 Ry
     estimated scf accuracy    <       0.00000001 Ry

     iteration # 10     ecut=    60.00 Ry     beta= 0.70
     Davidson diagonalization with overlap
     ethr =  7.44E-11,  avg # of iterations =  3.9

     total cpu time spent up to now is       25.2 secs

     End of self-consistent calculation

          k = 0.0000 0.0000 0.0000 (  2891 PWs)   bands (ev):

   -49.3775 -21.2999 -21.2999 -21.2999 -13.0019  -0.8202  -0.8202  -0.8202

          k =-0.1429 0.1429-0.1429 (  2930 PWs)   bands (ev):

   -49.3776 -21.3038 -21.3007 -21.3007 -12.9703  -1.0883  -0.8392  -0.8392

          k =-0.2857 0.2857-0.2857 (  2932 PWs)   bands (ev):

   -49.3775 -21.3119 -21.3015 -21.3015 -12.8984  -1.5881  -0.8809  -0.8809

          k =-0.4286 0.4286-0.4286 (  2962 PWs)   bands (ev):

   -49.3774 -21.3188 -21.3023 -21.3023 -12.8397  -1.9246  -0.9136  -0.9136

          k = 0.0000 0.2857 0.0000 (  2938 PWs)   bands (ev):

   -49.3776 -21.3043 -21.3013 -21.3013 -12.9598  -1.0947  -0.8839  -0.8839

          k =-0.1429 0.4286-0.1429 (  2946 PWs)   bands (ev):

   -49.3775 -21.3104 -21.3023 -21.3022 -12.9015  -1.4591  -0.9410  -0.9382

          k =-0.2857 0.5714-0.2857 (  2954 PWs)   bands (ev):

   -49.3774 -21.3170 -21.3036 -21.3028 -12.8384  -1.7964  -1.0248  -0.9678

          k = 0.5714-0.2857 0.5714 (  2956 PWs)   bands (ev):

   -49.3774 -21.3188 -21.3046 -21.3028 -12.8187  -1.8863  -1.0910  -0.9455

          k = 0.4286-0.1429 0.4286 (  2941 PWs)   bands (ev):

   -49.3774 -21.3148 -21.3039 -21.3018 -12.8578  -1.6948  -1.0765  -0.8899

          k = 0.2857-0.0000 0.2857 (  2944 PWs)   bands (ev):

   -49.3775 -21.3080 -21.3025 -21.3011 -12.9253  -1.3468  -0.9651  -0.8420

          k = 0.0000 0.5714 0.0000 (  2926 PWs)   bands (ev):

   -49.3774 -21.3131 -21.3031 -21.3031 -12.8647  -1.5572  -1.0217  -1.0217

          k =-0.1429 0.7143-0.1429 (  2967 PWs)   bands (ev):

   -49.3774 -21.3176 -21.3052 -21.3042 -12.8154  -1.7292  -1.1499  -1.0631

          k = 0.7143-0.1429 0.7143 (  2948 PWs)   bands (ev):

   -49.3773 -21.3185 -21.3073 -21.3039 -12.7908  -1.7218  -1.3730  -1.0366

          k = 0.5714 0.0000 0.5714 (  2962 PWs)   bands (ev):

   -49.3774 -21.3171 -21.3074 -21.3030 -12.8099  -1.6658  -1.3896  -0.9604

          k = 0.0000 0.8571 0.0000 (  2962 PWs)   bands (ev):

   -49.3773 -21.3201 -21.3052 -21.3052 -12.7878  -1.8339  -1.1272  -1.1272

          k = 0.8571-0.0000 0.8571 (  2948 PWs)   bands (ev):

   -49.3773 -21.3202 -21.3063 -21.3049 -12.7769  -1.8057  -1.2607  -1.1158

          k =-0.2857 0.5714 0.0000 (  2966 PWs)   bands (ev):

   -49.3775 -21.3147 -21.3049 -21.3030 -12.8476  -1.6353  -1.1400  -0.9634

          k = 0.5714-0.2857 0.8571 (  2972 PWs)   bands (ev):

   -49.3774 -21.3180 -21.3067 -21.3039 -12.8040  -1.7396  -1.2854  -1.0232

          k = 0.7143-0.1429 1.0000 (  2938 PWs)   bands (ev):

   -49.3773 -21.3188 -21.3064 -21.3049 -12.7853  -1.7397  -1.2732  -1.1410

          k = 0.5714 0.0000 0.8571 (  2965 PWs)   bands (ev):

   -49.3773 -21.3186 -21.3080 -21.3050 -12.7803  -1.5878  -1.5021  -1.1250

     highest occupied level (ev):    -0.8202

!    total energy              =    -188.83238890 Ry

     total all-electron energy =     -1248.119404 Ry
     estimated scf accuracy    <          2.6E-09 Ry

     The total energy is the sum of the following terms:
     one-electron contribution =     -95.14003014 Ry
     hartree contribution      =      53.41599314 Ry
     xc contribution           =     -25.68325714 Ry
     ewald contribution        =     -60.82385099 Ry
     one-center paw contrib.   =     -60.60124377 Ry

     convergence has been achieved in  10 iterations

     Writing output data file ./tmp/NaCl.save/

     init_run     :      1.90s CPU      1.96s WALL (       1 calls)
     electrons    :     22.47s CPU     23.02s WALL (       1 calls)

     Called by init_run:
     wfcinit      :      0.62s CPU      0.62s WALL (       1 calls)
     potinit      :      0.37s CPU      0.38s WALL (       1 calls)
     hinit0       :      0.83s CPU      0.83s WALL (       1 calls)

     Called by electrons:
     c_bands      :     15.52s CPU     15.59s WALL (      11 calls)
     sum_band     :      3.34s CPU      3.61s WALL (      11 calls)
     v_of_rho     :      0.59s CPU      0.59s WALL (      11 calls)
     newd         :      0.56s CPU      0.80s WALL (      11 calls)
     PAW_pot      :      2.74s CPU      2.75s WALL (      11 calls)
     mix_rho      :      0.07s CPU      0.07s WALL (      11 calls)

     Called by c_bands:
     init_us_2    :      0.55s CPU      0.56s WALL (     460 calls)
     cegterg      :     14.21s CPU     14.26s WALL (     220 calls)

     Called by *egterg:
     cdiaghg      :      0.08s CPU      0.08s WALL (     854 calls)
     h_psi        :     11.28s CPU     11.33s WALL (     894 calls)
     s_psi        :      0.91s CPU      0.91s WALL (     894 calls)
     g_psi        :      0.17s CPU      0.17s WALL (     654 calls)

     Called by h_psi:
     h_psi:calbec :      0.87s CPU      0.88s WALL (     894 calls)
     vloc_psi     :      9.47s CPU      9.50s WALL (     894 calls)
     add_vuspsi   :      0.90s CPU      0.91s WALL (     894 calls)

     General routines
     calbec       :      1.16s CPU      1.17s WALL (    1114 calls)
     fft          :      0.26s CPU      0.26s WALL (     142 calls)
     ffts         :      0.04s CPU      0.04s WALL (      22 calls)
     fftw         :     10.26s CPU     10.29s WALL (   12298 calls)
     interpolate  :      0.05s CPU      0.05s WALL (      11 calls)

     Parallel routines

     PWSCF        :     24.62s CPU     25.25s WALL


   This run was terminated on:  22:44:26  11Nov2022            

=------------------------------------------------------------------------------=
   JOB DONE.
=------------------------------------------------------------------------------=
