
     Program BANDS v.6.7MaX starts on 11Nov2022 at 23:16:55 

     This program is part of the open-source Quantum ESPRESSO suite
     for quantum simulation of materials; please cite
         "P. Giannozzi et al., J. Phys.:Condens. Matter 21 395502 (2009);
         "P. Giannozzi et al., J. Phys.:Condens. Matter 29 465901 (2017);
          URL http://www.quantum-espresso.org", 
     in publications or presentations arising from this work. More details at
     http://www.quantum-espresso.org/quote

     Parallel version (MPI), running on     1 processors

     MPI processes distributed on     1 nodes

     Reading xml data from directory:

     ./tmp/NaCl.save/
     file Na.pbe-spn-kjpaw_psl.1.0.0.UPF: wavefunction(s)  2P renormalized
     file Cl.pbe-n-kjpaw_psl.1.0.0.UPF: wavefunction(s)  3S 3P renormalized

     IMPORTANT: XC functional enforced from input :
     Exchange-correlation= PBE
                           (   1   4   3   4   0   0   0)
     Any further DFT definition will be discarded
     Please, verify this is what you really want


     G-vector sticks info
     --------------------
     sticks:   dense  smooth     PW     G-vecs:    dense   smooth      PW
     Sum        1111    1069    349                24213    23505    4279


     Check: negative core charge=   -0.000006
     Reading collected, re-writing distributed wavefunctions
     high-symmetry point:  0.5000 0.5000 0.5000   x coordinate   0.0000
     high-symmetry point:  0.0000 0.0000 0.0000   x coordinate   0.8660
     high-symmetry point:  1.0000 0.0000 0.0000   x coordinate   1.8660
     high-symmetry point:  1.0500-0.3000 0.3000   x coordinate   2.2932
     high-symmetry point:  1.0000-1.0000 1.0000   x coordinate   3.2844

     Plottable bands (eV) written to file NaCl_bands.dat.gnu
     Bands written to file NaCl_bands.dat

 **************************************************************************

                    xk=(   0.50000,   0.50000,   0.50000  )

     point group C_3v (3m)  
     there are  3 classes
     the character table:

       E     2C3   3s_v 
A_1    1.00  1.00  1.00
A_2    1.00  1.00 -1.00
E      2.00 -1.00  0.00

     the symmetry operations in each class and the name of the first element:

     E        1
                                                                 
     2C3      2    3
                                                                 
     3s_v     4    5    6
                                                                 

     Band symmetry, C_3v (3m)   point group:

     e(  1 -  1) =    -49.37744  eV     1   --> A_1  L_1       
     e(  2 -  2) =    -21.31936  eV     1   --> A_1  L_1       
     e(  3 -  4) =    -21.30235  eV     2   --> E    L_3       
     e(  5 -  5) =    -12.83047  eV     1   --> A_1  L_1       
     e(  6 -  6) =     -1.96985  eV     1   --> A_1  L_1       
     e(  7 -  8) =     -0.91788  eV     2   --> E    L_3       
     e(  9 -  9) =      6.91931  eV     1   --> A_1  L_1       
     e( 10 - 10) =      8.34837  eV     1   --> A_1  L_1       
     e( 11 - 12) =      9.91795  eV     2   --> E    L_3       
     e( 13 - 13) =     13.93177  eV     1   --> A_1  L_1       
     e( 14 - 15) =     14.03227  eV     2   --> E    L_3       
     e( 16 - 16) =     15.01741  eV     1   --> A_1  L_1       

 **************************************************************************

 **************************************************************************

                    xk=(   0.47500,   0.47500,   0.47500  )

     Band symmetry, C_3v (3m)   point group:

     e(  1 -  1) =    -49.37743  eV     1   --> A_1  L_1       
     e(  2 -  2) =    -21.31914  eV     1   --> A_1  L_1       
     e(  3 -  4) =    -21.30231  eV     2   --> E    L_3       
     e(  5 -  5) =    -12.83154  eV     1   --> A_1  L_1       
     e(  6 -  6) =     -1.96420  eV     1   --> A_1  L_1       
     e(  7 -  8) =     -0.91729  eV     2   --> E    L_3       
     e(  9 -  9) =      6.89649  eV     1   --> A_1  L_1       
     e( 10 - 10) =      8.36662  eV     1   --> A_1  L_1       
     e( 11 - 12) =      9.92432  eV     2   --> E    L_3       
     e( 13 - 13) =     13.88683  eV     1   --> A_1  L_1       
     e( 14 - 15) =     13.96526  eV     2   --> E    L_3       
     e( 16 - 16) =     15.09132  eV     1   --> A_1  L_1       

 **************************************************************************

 **************************************************************************

                    xk=(   0.45000,   0.45000,   0.45000  )

     Band symmetry, C_3v (3m)   point group:

     e(  1 -  1) =    -49.37749  eV     1   --> A_1  L_1       
     e(  2 -  2) =    -21.31911  eV     1   --> A_1  L_1       
     e(  3 -  4) =    -21.30241  eV     2   --> E    L_3       
     e(  5 -  5) =    -12.83474  eV     1   --> A_1  L_1       
     e(  6 -  6) =     -1.94742  eV     1   --> A_1  L_1       
     e(  7 -  8) =     -0.91556  eV     2   --> E    L_3       
     e(  9 -  9) =      6.83066  eV     1   --> A_1  L_1       
     e( 10 - 10) =      8.41854  eV     1   --> A_1  L_1       
     e( 11 - 12) =      9.94315  eV     2   --> E    L_3       
     e( 13 - 13) =     13.78125  eV     1   --> A_1  L_1       
     e( 14 - 15) =     13.79372  eV     2   --> E    L_3       
     e( 16 - 16) =     15.28255  eV     1   --> A_1  L_1       

 **************************************************************************

 **************************************************************************

                    xk=(   0.42500,   0.42500,   0.42500  )

     Band symmetry, C_3v (3m)   point group:

     e(  1 -  1) =    -49.37752  eV     1   --> A_1  L_1       
     e(  2 -  2) =    -21.31873  eV     1   --> A_1  L_1       
     e(  3 -  4) =    -21.30239  eV     2   --> E    L_3       
     e(  5 -  5) =    -12.83998  eV     1   --> A_1  L_1       
     e(  6 -  6) =     -1.91957  eV     1   --> A_1  L_1       
     e(  7 -  8) =     -0.91270  eV     2   --> E    L_3       
     e(  9 -  9) =      6.72878  eV     1   --> A_1  L_1       
     e( 10 - 10) =      8.49785  eV     1   --> A_1  L_1       
     e( 11 - 12) =      9.97445  eV     2   --> E    L_3       
     e( 13 - 14) =     13.56808  eV     2   --> E    L_3       
     e( 15 - 15) =     13.66047  eV     1   --> A_1  L_1       
     e( 16 - 16) =     15.54483  eV     1   --> A_1  L_1       

 **************************************************************************

 **************************************************************************

                    xk=(   0.40000,   0.40000,   0.40000  )

     Band symmetry, C_3v (3m)   point group:

     e(  1 -  1) =    -49.37752  eV     1   --> A_1  L_1       
     e(  2 -  2) =    -21.31787  eV     1   --> A_1  L_1       
     e(  3 -  4) =    -21.30227  eV     2   --> E    L_3       
     e(  5 -  5) =    -12.84712  eV     1   --> A_1  L_1       
     e(  6 -  6) =     -1.88106  eV     1   --> A_1  L_1       
     e(  7 -  8) =     -0.90879  eV     2   --> E    L_3       
     e(  9 -  9) =      6.59840  eV     1   --> A_1  L_1       
     e( 10 - 10) =      8.59781  eV     1   --> A_1  L_1       
     e( 11 - 12) =     10.01776  eV     2   --> E    L_3       
     e( 13 - 14) =     13.32193  eV     2   --> E    L_3       
     e( 15 - 15) =     13.55109  eV     1   --> A_1  L_1       
     e( 16 - 16) =     15.84906  eV     1   --> A_1  L_1       

 **************************************************************************

 **************************************************************************

                    xk=(   0.37500,   0.37500,   0.37500  )

     Band symmetry, C_3v (3m)   point group:

     e(  1 -  1) =    -49.37753  eV     1   --> A_1  L_1       
     e(  2 -  2) =    -21.31696  eV     1   --> A_1  L_1       
     e(  3 -  4) =    -21.30211  eV     2   --> E    L_3       
     e(  5 -  5) =    -12.85597  eV     1   --> A_1  L_1       
     e(  6 -  6) =     -1.83245  eV     1   --> A_1  L_1       
     e(  7 -  8) =     -0.90390  eV     2   --> E    L_3       
     e(  9 -  9) =      6.44593  eV     1   --> A_1  L_1       
     e( 10 - 10) =      8.71282  eV     1   --> A_1  L_1       
     e( 11 - 12) =     10.07236  eV     2   --> E    L_3       
     e( 13 - 14) =     13.07315  eV     2   --> E    L_3       
     e( 15 - 15) =     13.46559  eV     1   --> A_1  L_1       
     e( 16 - 16) =     16.17764  eV     1   --> A_1  L_1       

 **************************************************************************

 **************************************************************************

                    xk=(   0.35000,   0.35000,   0.35000  )

     Band symmetry, C_3v (3m)   point group:

     e(  1 -  1) =    -49.37752  eV     1   --> A_1  L_1       
     e(  2 -  2) =    -21.31569  eV     1   --> A_1  L_1       
     e(  3 -  4) =    -21.30189  eV     2   --> E    L_3       
     e(  5 -  5) =    -12.86631  eV     1   --> A_1  L_1       
     e(  6 -  6) =     -1.77431  eV     1   --> A_1  L_1       
     e(  7 -  8) =     -0.89815  eV     2   --> E    L_3       
     e(  9 -  9) =      6.27672  eV     1   --> A_1  L_1       
     e( 10 - 10) =      8.83908  eV     1   --> A_1  L_1       
     e( 11 - 12) =     10.13734  eV     2   --> E    L_3       
     e( 13 - 14) =     12.83162  eV     2   --> E    L_3       
     e( 15 - 15) =     13.40988  eV     1   --> A_1  L_1       
     e( 16 - 16) =     16.51716  eV     1   --> A_1  L_1       

 **************************************************************************

 **************************************************************************

                    xk=(   0.32500,   0.32500,   0.32500  )

     Band symmetry, C_3v (3m)   point group:

     e(  1 -  1) =    -49.37750  eV     1   --> A_1  L_1       
     e(  2 -  2) =    -21.31422  eV     1   --> A_1  L_1       
     e(  3 -  4) =    -21.30170  eV     2   --> E    L_3       
     e(  5 -  5) =    -12.87787  eV     1   --> A_1  L_1       
     e(  6 -  6) =     -1.70755  eV     1   --> A_1  L_1       
     e(  7 -  8) =     -0.89169  eV     2   --> E    L_3       
     e(  9 -  9) =      6.09501  eV     1   --> A_1  L_1       
     e( 10 - 10) =      8.97392  eV     1   --> A_1  L_1       
     e( 11 - 12) =     10.21113  eV     2   --> E    L_3       
     e( 13 - 14) =     12.60346  eV     2   --> E    L_3       
     e( 15 - 15) =     13.38643  eV     1   --> A_1  L_1       
     e( 16 - 16) =     16.85170  eV     1   --> A_1  L_1       

 **************************************************************************

 **************************************************************************

                    xk=(   0.30000,   0.30000,   0.30000  )

     Band symmetry, C_3v (3m)   point group:

     e(  1 -  1) =    -49.37755  eV     1   --> A_1  L_1       
     e(  2 -  2) =    -21.31293  eV     1   --> A_1  L_1       
     e(  3 -  4) =    -21.30164  eV     2   --> E    L_3       
     e(  5 -  5) =    -12.89036  eV     1   --> A_1  L_1       
     e(  6 -  6) =     -1.63318  eV     1   --> A_1  L_1       
     e(  7 -  8) =     -0.88468  eV     2   --> E    L_3       
     e(  9 -  9) =      5.90454  eV     1   --> A_1  L_1       
     e( 10 - 10) =      9.11520  eV     1   --> A_1  L_1       
     e( 11 - 12) =     10.29146  eV     2   --> E    L_3       
     e( 13 - 14) =     12.39331  eV     2   --> E    L_3       
     e( 15 - 15) =     13.39579  eV     1   --> A_1  L_1       
     e( 16 - 16) =     17.15417  eV     1   --> A_1  L_1       

 **************************************************************************

 **************************************************************************

                    xk=(   0.27500,   0.27500,   0.27500  )

     Band symmetry, C_3v (3m)   point group:

     e(  1 -  1) =    -49.37756  eV     1   --> A_1  L_1       
     e(  2 -  2) =    -21.31138  eV     1   --> A_1  L_1       
     e(  3 -  4) =    -21.30147  eV     2   --> E    L_3       
     e(  5 -  5) =    -12.90346  eV     1   --> A_1  L_1       
     e(  6 -  6) =     -1.55237  eV     1   --> A_1  L_1       
     e(  7 -  8) =     -0.87725  eV     2   --> E    L_3       
     e(  9 -  9) =      5.70898  eV     1   --> A_1  L_1       
     e( 10 - 10) =      9.26174  eV     1   --> A_1  L_1       
     e( 11 - 12) =     10.37546  eV     2   --> E    L_3       
     e( 13 - 14) =     12.20597  eV     2   --> E    L_3       
     e( 15 - 15) =     13.43739  eV     1   --> A_1  L_1       
     e( 16 - 16) =     17.37646  eV     1   --> A_1  L_1       

 **************************************************************************

 **************************************************************************

                    xk=(   0.25000,   0.25000,   0.25000  )

     Band symmetry, C_3v (3m)   point group:

     e(  1 -  1) =    -49.37757  eV     1   --> A_1  L_1       
     e(  2 -  2) =    -21.30986  eV     1   --> A_1  L_1       
     e(  3 -  4) =    -21.30130  eV     2   --> E    L_3       
     e(  5 -  5) =    -12.91684  eV     1   --> A_1  L_1       
     e(  6 -  6) =     -1.46658  eV     1   --> A_1  L_1       
     e(  7 -  8) =     -0.86960  eV     2   --> E    L_3       
     e(  9 -  9) =      5.51176  eV     1   --> A_1  L_1       
     e( 10 - 10) =      9.41199  eV     1   --> A_1  L_1       
     e( 11 - 12) =     10.45826  eV     2   --> E    L_3       
     e( 13 - 14) =     12.04663  eV     2   --> E    L_3       
     e( 15 - 15) =     13.50963  eV     1   --> A_1  L_1       
     e( 16 - 16) =     17.36487  eV     1   -->   ?

 **************************************************************************

 **************************************************************************

                    xk=(   0.22500,   0.22500,   0.22500  )

     Band symmetry, C_3v (3m)   point group:

     e(  1 -  1) =    -49.37761  eV     1   --> A_1  L_1       
     e(  2 -  2) =    -21.30835  eV     1   --> A_1  L_1       
     e(  3 -  4) =    -21.30125  eV     2   --> E    L_3       
     e(  5 -  5) =    -12.93018  eV     1   --> A_1  L_1       
     e(  6 -  6) =     -1.37754  eV     1   --> A_1  L_1       
     e(  7 -  8) =     -0.86190  eV     2   --> E    L_3       
     e(  9 -  9) =      5.31642  eV     1   --> A_1  L_1       
     e( 10 - 10) =      9.56433  eV     1   --> A_1  L_1       
     e( 11 - 12) =     10.53306  eV     2   --> E    L_3       
     e( 13 - 14) =     11.92183  eV     2   --> E    L_3       
     e( 15 - 15) =     13.61024  eV     1   --> A_1  L_1       
     e( 16 - 16) =     17.06024  eV     1   -->   ?

 **************************************************************************

 **************************************************************************

                    xk=(   0.20000,   0.20000,   0.20000  )

     Band symmetry, C_3v (3m)   point group:

     e(  1 -  1) =    -49.37762  eV     1   --> A_1  L_1       
     e(  2 -  2) =    -21.30682  eV     1   --> A_1  L_1       
     e(  3 -  4) =    -21.30107  eV     2   --> E    L_3       
     e(  5 -  5) =    -12.94315  eV     1   --> A_1  L_1       
     e(  6 -  6) =     -1.28713  eV     1   --> A_1  L_1       
     e(  7 -  8) =     -0.85436  eV     2   --> E    L_3       
     e(  9 -  9) =      5.12664  eV     1   --> A_1  L_1       
     e( 10 - 10) =      9.71696  eV     1   --> A_1  L_1       
     e( 11 - 12) =     10.59178  eV     2   --> E    L_3       
     e( 13 - 14) =     11.83948  eV     2   --> E    L_3       
     e( 15 - 15) =     13.73637  eV     1   --> A_1  L_1       
     e( 16 - 16) =     16.73385  eV     1   -->   ?

 **************************************************************************

 **************************************************************************

                    xk=(   0.17500,   0.17500,   0.17500  )

     Band symmetry, C_3v (3m)   point group:

     e(  1 -  1) =    -49.37765  eV     1   --> A_1  L_1       
     e(  2 -  2) =    -21.30550  eV     1   --> A_1  L_1       
     e(  3 -  4) =    -21.30100  eV     2   --> E    L_3       
     e(  5 -  5) =    -12.95543  eV     1   --> A_1  L_1       
     e(  6 -  6) =     -1.19762  eV     1   --> A_1  L_1       
     e(  7 -  8) =     -0.84717  eV     2   --> E    L_3       
     e(  9 -  9) =      4.94604  eV     1   --> A_1  L_1       
     e( 10 - 10) =      9.86727  eV     1   --> A_1  L_1       
     e( 11 - 12) =     10.62637  eV     2   --> E    L_3       
     e( 13 - 14) =     11.80568  eV     2   --> E    L_3       
     e( 15 - 15) =     13.88448  eV     1   --> A_1  L_1       
     e( 16 - 16) =     16.40756  eV     1   -->   ?

 **************************************************************************

 **************************************************************************

                    xk=(   0.15000,   0.15000,   0.15000  )

     Band symmetry, C_3v (3m)   point group:

     e(  1 -  1) =    -49.37766  eV     1   --> A_1  L_1       
     e(  2 -  2) =    -21.30425  eV     1   --> A_1  L_1       
     e(  3 -  4) =    -21.30080  eV     2   --> E    L_3       
     e(  5 -  5) =    -12.96673  eV     1   --> A_1  L_1       
     e(  6 -  6) =     -1.11147  eV     1   --> A_1  L_1       
     e(  7 -  8) =     -0.84048  eV     2   --> E    L_3       
     e(  9 -  9) =      4.77845  eV     1   --> A_1  L_1       
     e( 10 - 10) =     10.01245  eV     1   --> A_1  L_1       
     e( 11 - 12) =     10.63453  eV     2   --> E    L_3       
     e( 13 - 14) =     11.82070  eV     2   --> E    L_3       
     e( 15 - 15) =     14.05043  eV     1   --> A_1  L_1       
     e( 16 - 16) =     16.09360  eV     1   -->   ?

 **************************************************************************

 **************************************************************************

                    xk=(   0.12500,   0.12500,   0.12500  )

     Band symmetry, C_3v (3m)   point group:

     e(  1 -  1) =    -49.37772  eV     1   --> A_1  L_1       
     e(  2 -  2) =    -21.30332  eV     1   --> A_1  L_1       
     e(  3 -  4) =    -21.30081  eV     2   --> E    L_3       
     e(  5 -  5) =    -12.97678  eV     1   --> A_1  L_1       
     e(  6 -  6) =     -1.03146  eV     1   --> A_1  L_1       
     e(  7 -  8) =     -0.83451  eV     2   --> E    L_3       
     e(  9 -  9) =      4.62768  eV     1   --> A_1  L_1       
     e( 10 - 10) =     10.14836  eV     1   --> A_1  L_1       
     e( 11 - 12) =     10.62079  eV     2   --> E    L_3       
     e( 13 - 14) =     11.87577  eV     2   --> E    L_3       
     e( 15 - 15) =     14.22909  eV     1   --> A_1  L_1       
     e( 16 - 16) =     15.80078  eV     1   -->   ?

 **************************************************************************

 **************************************************************************

                    xk=(   0.10000,   0.10000,   0.10000  )

     Band symmetry, C_3v (3m)   point group:

     e(  1 -  1) =    -49.37771  eV     1   --> A_1  L_1       
     e(  2 -  2) =    -21.30226  eV     1   --> A_1  L_1       
     e(  3 -  4) =    -21.30063  eV     2   --> E    L_3       
     e(  5 -  5) =    -12.98534  eV     1   --> A_1  L_1       
     e(  6 -  6) =     -0.96041  eV     1   --> A_1  L_1       
     e(  7 -  8) =     -0.82938  eV     2   --> E    L_3       
     e(  9 -  9) =      4.49759  eV     1   --> A_1  L_1       
     e( 10 - 10) =     10.27096  eV     1   --> A_1  L_1       
     e( 11 - 12) =     10.59525  eV     2   --> E    L_3       
     e( 13 - 14) =     11.95603  eV     2   --> E    L_3       
     e( 15 - 15) =     14.41458  eV     1   --> A_1  L_1       
     e( 16 - 16) =     15.53779  eV     1   -->   ?

 **************************************************************************

 **************************************************************************

                    xk=(   0.07500,   0.07500,   0.07500  )

     Band symmetry, C_3v (3m)   point group:

     e(  1 -  1) =    -49.37770  eV     1   --> A_1  L_1       
     e(  2 -  2) =    -21.30145  eV     1   --> A_1  L_1       
     e(  3 -  4) =    -21.30049  eV     2   --> E    L_3       
     e(  5 -  5) =    -12.99222  eV     1   --> A_1  L_1       
     e(  6 -  6) =     -0.90130  eV     1   --> A_1  L_1       
     e(  7 -  8) =     -0.82524  eV     2   --> E    L_3       
     e(  9 -  9) =      4.39177  eV     1   --> A_1  L_1       
     e( 10 - 10) =     10.37451  eV     1   --> A_1  L_1       
     e( 11 - 12) =     10.56689  eV     2   --> E    L_3       
     e( 13 - 14) =     12.04448  eV     2   --> E    L_3       
     e( 15 - 15) =     14.59934  eV     1   --> A_1  L_1       
     e( 16 - 16) =     15.31414  eV     1   -->   ?

 **************************************************************************

 **************************************************************************

                    xk=(   0.05000,   0.05000,   0.05000  )

     Band symmetry, C_3v (3m)   point group:

     e(  1 -  1) =    -49.37771  eV     1   --> A_1  L_1       
     e(  2 -  2) =    -21.30087  eV     1   --> A_1  L_1       
     e(  3 -  4) =    -21.30043  eV     2   --> E    L_3       
     e(  5 -  5) =    -12.99725  eV     1   --> A_1  L_1       
     e(  6 -  6) =     -0.85680  eV     1   --> A_1  L_1       
     e(  7 -  8) =     -0.82220  eV     2   --> E    L_3       
     e(  9 -  9) =      4.31354  eV     1   --> A_1  L_1       
     e( 10 - 10) =     10.45363  eV     1   --> A_1  L_1       
     e( 11 - 12) =     10.54244  eV     2   --> E    L_3       
     e( 13 - 14) =     12.12438  eV     2   --> E    L_3       
     e( 15 - 15) =     14.77396  eV     1   --> A_1  L_1       
     e( 16 - 16) =     15.14098  eV     1   -->   ?

 **************************************************************************

 **************************************************************************

                    xk=(   0.02500,   0.02500,   0.02500  )

     Band symmetry, C_3v (3m)   point group:

     e(  1 -  1) =    -49.37770  eV     1   --> A_1  L_1       
     e(  2 -  2) =    -21.30053  eV     1   --> A_1  L_1       
     e(  3 -  4) =    -21.30030  eV     2   --> E    L_3       
     e(  5 -  5) =    -13.00031  eV     1   --> A_1  L_1       
     e(  6 -  6) =     -0.82912  eV     1   --> A_1  L_1       
     e(  7 -  8) =     -0.82034  eV     2   --> E    L_3       
     e(  9 -  9) =      4.26547  eV     1   --> A_1  L_1       
     e( 10 - 10) =     10.50350  eV     1   --> A_1  L_1       
     e( 11 - 12) =     10.52642  eV     2   --> E    L_3       
     e( 13 - 14) =     12.18030  eV     2   --> E    L_3       
     e( 15 - 15) =     14.92185  eV     1   --> A_1  L_1       
     e( 16 - 16) =     15.03036  eV     1   -->   ?

 **************************************************************************

 **************************************************************************

                    xk=(   0.00000,   0.00000,   0.00000  )

     point group T_d (-43m) 
     there are  5 classes
     the character table:

       E     8C3   3C2   6S4   6s_d 
A_1    1.00  1.00  1.00  1.00  1.00
A_2    1.00  1.00  1.00 -1.00 -1.00
E      2.00 -1.00  2.00  0.00  0.00
T_1    3.00  0.00 -1.00  1.00 -1.00
T_2    3.00  0.00 -1.00 -1.00  1.00

     the symmetry operations in each class and the name of the first element:

     E        1
                                                                 
     8C3      5    7    8    6   12    9   10   11
                                                                 
     3C2      2    3    4
                                                                 
     6S4     15   16   20   19   23   24
                                                                 
     6s_d    13   14   17   18   21   22
                                                                 

     Band symmetry, T_d (-43m)  point group:

     e(  1 -  1) =    -49.37762  eV     1   --> A_1  G_1  P_1  
     e(  2 -  4) =    -21.30001  eV     3   --> T_2  G_15 P_4  
     e(  5 -  5) =    -13.00134  eV     1   --> A_1  G_1  P_1  
     e(  6 -  8) =     -0.81972  eV     3   --> T_2  G_15 P_4  
     e(  9 -  9) =      4.24928  eV     1   --> A_1  G_1  P_1  
     e( 10 - 12) =     10.52128  eV     3   --> T_2  G_15 P_4  
     e( 13 - 14) =     12.20047  eV     2   --> E    G_12 P_3  
     e( 15 - 16) =     14.99229  eV     2   -->   ?

 **************************************************************************

 **************************************************************************

                    xk=(   0.03333,   0.00000,   0.00000  )

     point group C_2v (mm2) 
     there are  4 classes
     the character table:

       E     C2    s_v   s_v' 
A_1    1.00  1.00  1.00  1.00
A_2    1.00  1.00 -1.00 -1.00
B_1    1.00 -1.00  1.00 -1.00
B_2    1.00 -1.00 -1.00  1.00

     the symmetry operations in each class and the name of the first element:

     E        1
                                                                 
     C2       2
                                                                 
     s_v      3
                                                                 
     s_v'     4
                                                                 

     Band symmetry, C_2v (mm2)  point group:

     e(  1 -  1) =    -49.37770  eV     1   --> A_1  D_1  S_1  
     e(  2 -  2) =    -21.30047  eV     1   --> A_1  D_1  S_1  
     e(  3 -  4) =    -21.30029  eV     2   --> B_1  D_3  S_3  
     e(  3 -  4) =    -21.30029  eV     2   --> B_2  D_4  S_4  
     e(  5 -  5) =    -13.00073  eV     1   --> A_1  D_1  S_1  
     e(  6 -  6) =     -0.82416  eV     1   --> A_1  D_1  S_1  
     e(  7 -  8) =     -0.82066  eV     2   --> B_1  D_3  S_3  
     e(  7 -  8) =     -0.82066  eV     2   --> B_2  D_4  S_4  
     e(  9 -  9) =      4.25887  eV     1   --> A_1  D_1  S_1  
     e( 10 - 10) =     10.51053  eV     1   --> A_1  D_1  S_1  
     e( 11 - 12) =     10.52411  eV     2   --> B_1  D_3  S_3  
     e( 11 - 12) =     10.52411  eV     2   --> B_2  D_4  S_4  
     e( 13 - 13) =     12.17263  eV     1   --> A_1  D_1  S_1  
     e( 14 - 14) =     12.20416  eV     1   --> A_2  D_2  S_2  
     e( 15 - 15) =     14.97813  eV     1   --> A_1  D_1  S_1  
     e( 16 - 16) =     14.99898  eV     1   -->   ?

 **************************************************************************

 **************************************************************************

                    xk=(   0.06667,   0.00000,   0.00000  )

     Band symmetry, C_2v (mm2)  point group:

     e(  1 -  1) =    -49.37770  eV     1   --> A_1  D_1  S_1  
     e(  2 -  2) =    -21.30064  eV     1   --> A_1  D_1  S_1  
     e(  3 -  4) =    -21.30033  eV     2   --> B_1  D_3  S_3  
     e(  3 -  4) =    -21.30033  eV     2   --> B_2  D_4  S_4  
     e(  5 -  5) =    -12.99891  eV     1   --> A_1  D_1  S_1  
     e(  6 -  6) =     -0.83736  eV     1   --> A_1  D_1  S_1  
     e(  7 -  8) =     -0.82346  eV     2   --> B_1  D_3  S_3  
     e(  7 -  8) =     -0.82346  eV     2   --> B_2  D_4  S_4  
     e(  9 -  9) =      4.28757  eV     1   --> A_1  D_1  S_1  
     e( 10 - 10) =     10.48090  eV     1   --> A_1  D_1  S_1  
     e( 11 - 12) =     10.53404  eV     2   --> B_1  D_3  S_3  
     e( 11 - 12) =     10.53404  eV     2   --> B_2  D_4  S_4  
     e( 13 - 13) =     12.09176  eV     1   --> A_1  D_1  S_1  
     e( 14 - 14) =     12.21522  eV     1   --> A_2  D_2  S_2  
     e( 15 - 15) =     14.95575  eV     1   --> A_1  D_1  S_1  
     e( 16 - 16) =     15.01936  eV     1   -->   ?

 **************************************************************************

 **************************************************************************

                    xk=(   0.10000,   0.00000,   0.00000  )

     Band symmetry, C_2v (mm2)  point group:

     e(  1 -  1) =    -49.37770  eV     1   --> A_1  D_1  S_1  
     e(  2 -  2) =    -21.30092  eV     1   --> A_1  D_1  S_1  
     e(  3 -  4) =    -21.30045  eV     2   --> B_1  D_3  S_3  
     e(  3 -  4) =    -21.30045  eV     2   --> B_2  D_4  S_4  
     e(  5 -  5) =    -12.99588  eV     1   --> A_1  D_1  S_1  
     e(  6 -  6) =     -0.85891  eV     1   --> A_1  D_1  S_1  
     e(  7 -  8) =     -0.82809  eV     2   --> B_1  D_3  S_3  
     e(  7 -  8) =     -0.82809  eV     2   --> B_2  D_4  S_4  
     e(  9 -  9) =      4.33479  eV     1   --> A_1  D_1  S_1  
     e( 10 - 10) =     10.43289  eV     1   --> A_1  D_1  S_1  
     e( 11 - 12) =     10.55051  eV     2   --> B_1  D_3  S_3  
     e( 11 - 12) =     10.55051  eV     2   --> B_2  D_4  S_4  
     e( 13 - 13) =     11.96487  eV     1   --> A_1  D_1  S_1  
     e( 14 - 14) =     12.23363  eV     1   --> A_2  D_2  S_2  
     e( 15 - 15) =     14.94822  eV     1   --> A_1  D_1  S_1  
     e( 16 - 16) =     15.05305  eV     1   -->   ?

 **************************************************************************

 **************************************************************************

                    xk=(   0.13333,   0.00000,   0.00000  )

     Band symmetry, C_2v (mm2)  point group:

     e(  1 -  1) =    -49.37771  eV     1   --> A_1  D_1  S_1  
     e(  2 -  2) =    -21.30147  eV     1   --> A_1  D_1  S_1  
     e(  3 -  4) =    -21.30056  eV     2   --> B_1  D_3  S_3  
     e(  3 -  4) =    -21.30056  eV     2   --> B_2  D_4  S_4  
     e(  5 -  5) =    -12.99170  eV     1   --> A_1  D_1  S_1  
     e(  6 -  6) =     -0.88816  eV     1   --> A_1  D_1  S_1  
     e(  7 -  8) =     -0.83449  eV     2   --> B_1  D_3  S_3  
     e(  7 -  8) =     -0.83449  eV     2   --> B_2  D_4  S_4  
     e(  9 -  9) =      4.39966  eV     1   --> A_1  D_1  S_1  
     e( 10 - 10) =     10.36809  eV     1   --> A_1  D_1  S_1  
     e( 11 - 12) =     10.57366  eV     2   --> B_1  D_3  S_3  
     e( 11 - 12) =     10.57366  eV     2   --> B_2  D_4  S_4  
     e( 13 - 13) =     11.80143  eV     1   --> A_1  D_1  S_1  
     e( 14 - 14) =     12.25936  eV     1   --> A_2  D_2  S_2  
     e( 15 - 15) =     14.96317  eV     1   --> A_1  D_1  S_1  
     e( 16 - 16) =     15.09966  eV     1   -->   ?

 **************************************************************************

 **************************************************************************

                    xk=(   0.16667,   0.00000,   0.00000  )

     Band symmetry, C_2v (mm2)  point group:

     e(  1 -  1) =    -49.37771  eV     1   --> A_1  D_1  S_1  
     e(  2 -  2) =    -21.30203  eV     1   --> A_1  D_1  S_1  
     e(  3 -  4) =    -21.30070  eV     2   --> B_1  D_3  S_3  
     e(  3 -  4) =    -21.30070  eV     2   --> B_2  D_4  S_4  
     e(  5 -  5) =    -12.98640  eV     1   --> A_1  D_1  S_1  
     e(  6 -  6) =     -0.92427  eV     1   --> A_1  D_1  S_1  
     e(  7 -  8) =     -0.84257  eV     2   --> B_1  D_3  S_3  
     e(  7 -  8) =     -0.84257  eV     2   --> B_2  D_4  S_4  
     e(  9 -  9) =      4.48103  eV     1   --> A_1  D_1  S_1  
     e( 10 - 10) =     10.28903  eV     1   --> A_1  D_1  S_1  
     e( 11 - 12) =     10.60343  eV     2   --> B_1  D_3  S_3  
     e( 11 - 12) =     10.60343  eV     2   --> B_2  D_4  S_4  
     e( 13 - 13) =     11.61134  eV     1   --> A_1  D_1  S_1  
     e( 14 - 14) =     12.29235  eV     1   --> A_2  D_2  S_2  
     e( 15 - 15) =     15.00049  eV     1   --> A_1  D_1  S_1  
     e( 16 - 16) =     15.15860  eV     1   -->   ?

 **************************************************************************

 **************************************************************************

                    xk=(   0.20000,   0.00000,   0.00000  )

     Band symmetry, C_2v (mm2)  point group:

     e(  1 -  1) =    -49.37770  eV     1   --> A_1  D_1  S_1  
     e(  2 -  2) =    -21.30250  eV     1   --> A_1  D_1  S_1  
     e(  3 -  4) =    -21.30089  eV     2   --> B_1  D_3  S_3  
     e(  3 -  4) =    -21.30089  eV     2   --> B_2  D_4  S_4  
     e(  5 -  5) =    -12.98003  eV     1   --> A_1  D_1  S_1  
     e(  6 -  6) =     -0.96629  eV     1   --> A_1  D_1  S_1  
     e(  7 -  8) =     -0.85224  eV     2   --> B_1  D_3  S_3  
     e(  7 -  8) =     -0.85224  eV     2   --> B_2  D_4  S_4  
     e(  9 -  9) =      4.57747  eV     1   --> A_1  D_1  S_1  
     e( 10 - 10) =     10.19828  eV     1   --> A_1  D_1  S_1  
     e( 11 - 12) =     10.63973  eV     2   --> B_1  D_3  S_3  
     e( 11 - 12) =     10.63973  eV     2   --> B_2  D_4  S_4  
     e( 13 - 13) =     11.40381  eV     1   --> A_1  D_1  S_1  
     e( 14 - 14) =     12.33254  eV     1   --> A_2  D_2  S_2  
     e( 15 - 15) =     15.05731  eV     1   --> A_1  D_1  S_1  
     e( 16 - 16) =     15.22901  eV     1   -->   ?

 **************************************************************************

 **************************************************************************

                    xk=(   0.23333,   0.00000,   0.00000  )

     Band symmetry, C_2v (mm2)  point group:

     e(  1 -  1) =    -49.37769  eV     1   --> A_1  D_1  S_1  
     e(  2 -  2) =    -21.30313  eV     1   --> A_1  D_1  S_1  
     e(  3 -  4) =    -21.30107  eV     2   --> B_1  D_3  S_3  
     e(  3 -  4) =    -21.30107  eV     2   --> B_2  D_4  S_4  
     e(  5 -  5) =    -12.97267  eV     1   --> A_1  D_1  S_1  
     e(  6 -  6) =     -1.01321  eV     1   --> A_1  D_1  S_1  
     e(  7 -  8) =     -0.86337  eV     2   --> B_1  D_3  S_3  
     e(  7 -  8) =     -0.86337  eV     2   --> B_2  D_4  S_4  
     e(  9 -  9) =      4.68736  eV     1   --> A_1  D_1  S_1  
     e( 10 - 10) =     10.09781  eV     1   --> A_1  D_1  S_1  
     e( 11 - 12) =     10.68270  eV     2   --> B_1  D_3  S_3  
     e( 11 - 12) =     10.68270  eV     2   --> B_2  D_4  S_4  
     e( 13 - 13) =     11.18646  eV     1   --> A_1  D_1  S_1  
     e( 14 - 14) =     12.37983  eV     1   --> A_2  D_2  S_2  
     e( 15 - 15) =     15.13035  eV     1   --> A_1  D_1  S_1  
     e( 16 - 16) =     15.30983  eV     1   -->   ?

 **************************************************************************

 **************************************************************************

                    xk=(   0.26667,   0.00000,   0.00000  )

     Band symmetry, C_2v (mm2)  point group:

     e(  1 -  1) =    -49.37768  eV     1   --> A_1  D_1  S_1  
     e(  2 -  2) =    -21.30388  eV     1   --> A_1  D_1  S_1  
     e(  3 -  4) =    -21.30125  eV     2   --> B_1  D_3  S_3  
     e(  3 -  4) =    -21.30125  eV     2   --> B_2  D_4  S_4  
     e(  5 -  5) =    -12.96439  eV     1   --> A_1  D_1  S_1  
     e(  6 -  6) =     -1.06396  eV     1   --> A_1  D_1  S_1  
     e(  7 -  8) =     -0.87581  eV     2   --> B_1  D_3  S_3  
     e(  7 -  8) =     -0.87581  eV     2   --> B_2  D_4  S_4  
     e(  9 -  9) =      4.80887  eV     1   --> A_1  D_1  S_1  
     e( 10 - 10) =      9.98989  eV     1   --> A_1  D_1  S_1  
     e( 11 - 12) =     10.73221  eV     2   --> B_1  D_3  S_3  
     e( 11 - 12) =     10.73221  eV     2   --> B_2  D_4  S_4  
     e( 13 - 13) =     10.96578  eV     1   --> A_1  D_1  S_1  
     e( 14 - 14) =     12.43411  eV     1   --> A_2  D_2  S_2  
     e( 15 - 15) =     15.21672  eV     1   --> A_1  D_1  S_1  
     e( 16 - 16) =     15.39963  eV     1   -->   ?

 **************************************************************************

 **************************************************************************

                    xk=(   0.30000,   0.00000,   0.00000  )

     Band symmetry, C_2v (mm2)  point group:

     e(  1 -  1) =    -49.37764  eV     1   --> A_1  D_1  S_1  
     e(  2 -  2) =    -21.30467  eV     1   --> A_1  D_1  S_1  
     e(  3 -  4) =    -21.30136  eV     2   --> B_1  D_3  S_3  
     e(  3 -  4) =    -21.30136  eV     2   --> B_2  D_4  S_4  
     e(  5 -  5) =    -12.95528  eV     1   --> A_1  D_1  S_1  
     e(  6 -  6) =     -1.11754  eV     1   --> A_1  D_1  S_1  
     e(  7 -  8) =     -0.88940  eV     2   --> B_1  D_3  S_3  
     e(  7 -  8) =     -0.88940  eV     2   --> B_2  D_4  S_4  
     e(  9 -  9) =      4.94010  eV     1   --> A_1  D_1  S_1  
     e( 10 - 10) =      9.87638  eV     1   --> A_1  D_1  S_1  
     e( 11 - 11) =     10.74715  eV     1   --> A_1  D_1  S_1  
     e( 12 - 13) =     10.78839  eV     2   --> B_1  D_3  S_3  
     e( 12 - 13) =     10.78839  eV     2   --> B_2  D_4  S_4  
     e( 14 - 14) =     12.49525  eV     1   --> A_2  D_2  S_2  
     e( 15 - 15) =     15.31400  eV     1   --> A_1  D_1  S_1  
     e( 16 - 16) =     15.49654  eV     1   -->   ?

 **************************************************************************

 **************************************************************************

                    xk=(   0.33333,   0.00000,   0.00000  )

     Band symmetry, C_2v (mm2)  point group:

     e(  1 -  1) =    -49.37760  eV     1   --> A_1  D_1  S_1  
     e(  2 -  2) =    -21.30550  eV     1   --> A_1  D_1  S_1  
     e(  3 -  4) =    -21.30149  eV     2   --> B_1  D_3  S_3  
     e(  3 -  4) =    -21.30149  eV     2   --> B_2  D_4  S_4  
     e(  5 -  5) =    -12.94545  eV     1   --> A_1  D_1  S_1  
     e(  6 -  6) =     -1.17299  eV     1   --> A_1  D_1  S_1  
     e(  7 -  8) =     -0.90400  eV     2   --> B_1  D_3  S_3  
     e(  7 -  8) =     -0.90400  eV     2   --> B_2  D_4  S_4  
     e(  9 -  9) =      5.07889  eV     1   --> A_1  D_1  S_1  
     e( 10 - 10) =      9.75888  eV     1   --> A_1  D_1  S_1  
     e( 11 - 11) =     10.53519  eV     1   --> A_1  D_1  S_1  
     e( 12 - 13) =     10.85106  eV     2   --> B_1  D_3  S_3  
     e( 12 - 13) =     10.85106  eV     2   --> B_2  D_4  S_4  
     e( 14 - 14) =     12.56309  eV     1   --> A_2  D_2  S_2  
     e( 15 - 15) =     15.42021  eV     1   --> A_1  D_1  S_1  
     e( 16 - 16) =     15.59804  eV     1   -->   ?

 **************************************************************************

 **************************************************************************

                    xk=(   0.36667,   0.00000,   0.00000  )

     Band symmetry, C_2v (mm2)  point group:

     e(  1 -  1) =    -49.37762  eV     1   --> A_1  D_1  S_1  
     e(  2 -  2) =    -21.30656  eV     1   --> A_1  D_1  S_1  
     e(  3 -  4) =    -21.30184  eV     2   --> B_1  D_3  S_3  
     e(  3 -  4) =    -21.30184  eV     2   --> B_2  D_4  S_4  
     e(  5 -  5) =    -12.93499  eV     1   --> A_1  D_1  S_1  
     e(  6 -  6) =     -1.22943  eV     1   --> A_1  D_1  S_1  
     e(  7 -  8) =     -0.91943  eV     2   --> B_1  D_3  S_3  
     e(  7 -  8) =     -0.91943  eV     2   --> B_2  D_4  S_4  
     e(  9 -  9) =      5.22287  eV     1   --> A_1  D_1  S_1  
     e( 10 - 10) =      9.63852  eV     1   --> A_1  D_1  S_1  
     e( 11 - 11) =     10.33392  eV     1   --> A_1  D_1  S_1  
     e( 12 - 13) =     10.91975  eV     2   --> B_1  D_3  S_3  
     e( 12 - 13) =     10.91975  eV     2   --> B_2  D_4  S_4  
     e( 14 - 14) =     12.63740  eV     1   --> A_2  D_2  S_2  
     e( 15 - 15) =     15.53356  eV     1   --> A_1  D_1  S_1  
     e( 16 - 16) =     15.70091  eV     1   -->   ?

 **************************************************************************

 **************************************************************************

                    xk=(   0.40000,   0.00000,   0.00000  )

     Band symmetry, C_2v (mm2)  point group:

     e(  1 -  1) =    -49.37760  eV     1   --> A_1  D_1  S_1  
     e(  2 -  2) =    -21.30756  eV     1   --> A_1  D_1  S_1  
     e(  3 -  4) =    -21.30208  eV     2   --> B_1  D_3  S_3  
     e(  3 -  4) =    -21.30208  eV     2   --> B_2  D_4  S_4  
     e(  5 -  5) =    -12.92402  eV     1   --> A_1  D_1  S_1  
     e(  6 -  6) =     -1.28605  eV     1   --> A_1  D_1  S_1  
     e(  7 -  8) =     -0.93550  eV     2   --> B_1  D_3  S_3  
     e(  7 -  8) =     -0.93550  eV     2   --> B_2  D_4  S_4  
     e(  9 -  9) =      5.36952  eV     1   --> A_1  D_1  S_1  
     e( 10 - 10) =      9.51677  eV     1   --> A_1  D_1  S_1  
     e( 11 - 11) =     10.14721  eV     1   --> A_1  D_1  S_1  
     e( 12 - 13) =     10.99495  eV     2   --> B_1  D_3  S_3  
     e( 12 - 13) =     10.99495  eV     2   --> B_2  D_4  S_4  
     e( 14 - 14) =     12.71798  eV     1   --> A_2  D_2  S_2  
     e( 15 - 15) =     15.65237  eV     1   --> A_1  D_1  S_1  
     e( 16 - 16) =     15.80111  eV     1   -->   ?

 **************************************************************************

 **************************************************************************

                    xk=(   0.43333,   0.00000,   0.00000  )

     Band symmetry, C_2v (mm2)  point group:

     e(  1 -  1) =    -49.37755  eV     1   --> A_1  D_1  S_1  
     e(  2 -  2) =    -21.30857  eV     1   --> A_1  D_1  S_1  
     e(  3 -  4) =    -21.30222  eV     2   --> B_1  D_3  S_3  
     e(  3 -  4) =    -21.30222  eV     2   --> B_2  D_4  S_4  
     e(  5 -  5) =    -12.91266  eV     1   --> A_1  D_1  S_1  
     e(  6 -  6) =     -1.34214  eV     1   --> A_1  D_1  S_1  
     e(  7 -  8) =     -0.95200  eV     2   --> B_1  D_3  S_3  
     e(  7 -  8) =     -0.95200  eV     2   --> B_2  D_4  S_4  
     e(  9 -  9) =      5.51599  eV     1   --> A_1  D_1  S_1  
     e( 10 - 10) =      9.39471  eV     1   --> A_1  D_1  S_1  
     e( 11 - 11) =      9.97839  eV     1   --> A_1  D_1  S_1  
     e( 12 - 13) =     11.07653  eV     2   --> B_1  D_3  S_3  
     e( 12 - 13) =     11.07653  eV     2   --> B_2  D_4  S_4  
     e( 14 - 14) =     12.80454  eV     1   --> A_2  D_2  S_2  
     e( 15 - 15) =     15.77462  eV     1   --> A_1  D_1  S_1  
     e( 16 - 16) =     15.89341  eV     1   -->   ?

 **************************************************************************

 **************************************************************************

                    xk=(   0.46667,   0.00000,   0.00000  )

     Band symmetry, C_2v (mm2)  point group:

     e(  1 -  1) =    -49.37749  eV     1   --> A_1  D_1  S_1  
     e(  2 -  2) =    -21.30962  eV     1   --> A_1  D_1  S_1  
     e(  3 -  4) =    -21.30224  eV     2   --> B_1  D_3  S_3  
     e(  3 -  4) =    -21.30224  eV     2   --> B_2  D_4  S_4  
     e(  5 -  5) =    -12.90103  eV     1   --> A_1  D_1  S_1  
     e(  6 -  6) =     -1.39709  eV     1   --> A_1  D_1  S_1  
     e(  7 -  8) =     -0.96876  eV     2   --> B_1  D_3  S_3  
     e(  7 -  8) =     -0.96876  eV     2   --> B_2  D_4  S_4  
     e(  9 -  9) =      5.65914  eV     1   --> A_1  D_1  S_1  
     e( 10 - 10) =      9.27379  eV     1   --> A_1  D_1  S_1  
     e( 11 - 11) =      9.83026  eV     1   --> A_1  D_1  S_1  
     e( 12 - 13) =     11.16441  eV     2   --> B_1  D_3  S_3  
     e( 12 - 13) =     11.16441  eV     2   --> B_2  D_4  S_4  
     e( 14 - 14) =     12.89675  eV     1   --> A_2  D_2  S_2  
     e( 15 - 15) =     15.89765  eV     1   --> A_1  D_1  S_1  
     e( 16 - 16) =     15.97151  eV     1   -->   ?

 **************************************************************************

 **************************************************************************

                    xk=(   0.50000,   0.00000,   0.00000  )

     Band symmetry, C_2v (mm2)  point group:

     e(  1 -  1) =    -49.37746  eV     1   --> A_1  D_1  S_1  
     e(  2 -  2) =    -21.31058  eV     1   --> A_1  D_1  S_1  
     e(  3 -  4) =    -21.30249  eV     2   --> B_1  D_3  S_3  
     e(  3 -  4) =    -21.30249  eV     2   --> B_2  D_4  S_4  
     e(  5 -  5) =    -12.88925  eV     1   --> A_1  D_1  S_1  
     e(  6 -  6) =     -1.45035  eV     1   --> A_1  D_1  S_1  
     e(  7 -  8) =     -0.98562  eV     2   --> B_1  D_3  S_3  
     e(  7 -  8) =     -0.98562  eV     2   --> B_2  D_4  S_4  
     e(  9 -  9) =      5.79544  eV     1   --> A_1  D_1  S_1  
     e( 10 - 10) =      9.15610  eV     1   --> A_1  D_1  S_1  
     e( 11 - 11) =      9.70538  eV     1   --> A_1  D_1  S_1  
     e( 12 - 13) =     11.25777  eV     2   --> B_1  D_3  S_3  
     e( 12 - 13) =     11.25777  eV     2   --> B_2  D_4  S_4  
     e( 14 - 14) =     12.99416  eV     1   --> A_2  D_2  S_2  
     e( 15 - 15) =     16.01745  eV     1   --> A_1  D_1  S_1  
     e( 16 - 16) =     16.02835  eV     1   -->   ?

 **************************************************************************

 **************************************************************************

                    xk=(   0.53333,   0.00000,   0.00000  )

     Band symmetry, C_2v (mm2)  point group:

     e(  1 -  1) =    -49.37748  eV     1   --> A_1  D_1  S_1  
     e(  2 -  2) =    -21.31193  eV     1   --> A_1  D_1  S_1  
     e(  3 -  4) =    -21.30284  eV     2   --> B_1  D_3  S_3  
     e(  3 -  4) =    -21.30284  eV     2   --> B_2  D_4  S_4  
     e(  5 -  5) =    -12.87747  eV     1   --> A_1  D_1  S_1  
     e(  6 -  6) =     -1.50149  eV     1   --> A_1  D_1  S_1  
     e(  7 -  8) =     -1.00240  eV     2   --> B_1  D_3  S_3  
     e(  7 -  8) =     -1.00240  eV     2   --> B_2  D_4  S_4  
     e(  9 -  9) =      5.92113  eV     1   --> A_1  D_1  S_1  
     e( 10 - 10) =      9.04369  eV     1   --> A_1  D_1  S_1  
     e( 11 - 11) =      9.60520  eV     1   --> A_1  D_1  S_1  
     e( 12 - 13) =     11.35662  eV     2   --> B_1  D_3  S_3  
     e( 12 - 13) =     11.35662  eV     2   --> B_2  D_4  S_4  
     e( 14 - 14) =     13.09629  eV     1   --> A_2  D_2  S_2  
     e( 15 - 16) =     16.05704  eV     2   --> B_1  D_3  S_3  
     e( 15 - 16) =     16.05704  eV     2   --> B_2  D_4  S_4  

 **************************************************************************

 **************************************************************************

                    xk=(   0.56667,   0.00000,   0.00000  )

     Band symmetry, C_2v (mm2)  point group:

     e(  1 -  1) =    -49.37747  eV     1   --> A_1  D_1  S_1  
     e(  2 -  2) =    -21.31301  eV     1   --> A_1  D_1  S_1  
     e(  3 -  4) =    -21.30314  eV     2   --> B_1  D_3  S_3  
     e(  3 -  4) =    -21.30314  eV     2   --> B_2  D_4  S_4  
     e(  5 -  5) =    -12.86580  eV     1   --> A_1  D_1  S_1  
     e(  6 -  6) =     -1.55009  eV     1   --> A_1  D_1  S_1  
     e(  7 -  8) =     -1.01887  eV     2   --> B_1  D_3  S_3  
     e(  7 -  8) =     -1.01887  eV     2   --> B_2  D_4  S_4  
     e(  9 -  9) =      6.03269  eV     1   --> A_1  D_1  S_1  
     e( 10 - 10) =      8.93895  eV     1   --> A_1  D_1  S_1  
     e( 11 - 11) =      9.53199  eV     1   --> A_1  D_1  S_1  
     e( 12 - 13) =     11.46093  eV     2   --> B_1  D_3  S_3  
     e( 12 - 13) =     11.46093  eV     2   --> B_2  D_4  S_4  
     e( 14 - 14) =     13.20254  eV     1   --> A_2  D_2  S_2  
     e( 15 - 16) =     16.05241  eV     2   --> B_1  D_3  S_3  
     e( 15 - 16) =     16.05241  eV     2   --> B_2  D_4  S_4  

 **************************************************************************

 **************************************************************************

                    xk=(   0.60000,   0.00000,   0.00000  )

     Band symmetry, C_2v (mm2)  point group:

     e(  1 -  1) =    -49.37747  eV     1   --> A_1  D_1  S_1  
     e(  2 -  2) =    -21.31423  eV     1   --> A_1  D_1  S_1  
     e(  3 -  4) =    -21.30340  eV     2   --> B_1  D_3  S_3  
     e(  3 -  4) =    -21.30340  eV     2   --> B_2  D_4  S_4  
     e(  5 -  5) =    -12.85438  eV     1   --> A_1  D_1  S_1  
     e(  6 -  6) =     -1.59585  eV     1   --> A_1  D_1  S_1  
     e(  7 -  8) =     -1.03488  eV     2   --> B_1  D_3  S_3  
     e(  7 -  8) =     -1.03488  eV     2   --> B_2  D_4  S_4  
     e(  9 -  9) =      6.12685  eV     1   --> A_1  D_1  S_1  
     e( 10 - 10) =      8.84309  eV     1   --> A_1  D_1  S_1  
     e( 11 - 11) =      9.48708  eV     1   --> A_1  D_1  S_1  
     e( 12 - 13) =     11.57030  eV     2   --> B_1  D_3  S_3  
     e( 12 - 13) =     11.57030  eV     2   --> B_2  D_4  S_4  
     e( 14 - 14) =     13.31221  eV     1   --> A_2  D_2  S_2  
     e( 15 - 16) =     16.01232  eV     2   --> B_1  D_3  S_3  
     e( 15 - 16) =     16.01232  eV     2   --> B_2  D_4  S_4  

 **************************************************************************

 **************************************************************************

                    xk=(   0.63333,   0.00000,   0.00000  )

     Band symmetry, C_2v (mm2)  point group:

     e(  1 -  1) =    -49.37747  eV     1   --> A_1  D_1  S_1  
     e(  2 -  2) =    -21.31522  eV     1   --> A_1  D_1  S_1  
     e(  3 -  4) =    -21.30376  eV     2   --> B_1  D_3  S_3  
     e(  3 -  4) =    -21.30376  eV     2   --> B_2  D_4  S_4  
     e(  5 -  5) =    -12.84333  eV     1   --> A_1  D_1  S_1  
     e(  6 -  6) =     -1.63851  eV     1   --> A_1  D_1  S_1  
     e(  7 -  8) =     -1.05027  eV     2   --> B_1  D_3  S_3  
     e(  7 -  8) =     -1.05027  eV     2   --> B_2  D_4  S_4  
     e(  9 -  9) =      6.20139  eV     1   --> A_1  D_1  S_1  
     e( 10 - 10) =      8.75670  eV     1   --> A_1  D_1  S_1  
     e( 11 - 11) =      9.47195  eV     1   --> A_1  D_1  S_1  
     e( 12 - 13) =     11.68405  eV     2   --> B_1  D_3  S_3  
     e( 12 - 13) =     11.68405  eV     2   --> B_2  D_4  S_4  
     e( 14 - 14) =     13.42439  eV     1   --> A_2  D_2  S_2  
     e( 15 - 16) =     15.93847  eV     2   --> B_1  D_3  S_3  
     e( 15 - 16) =     15.93847  eV     2   --> B_2  D_4  S_4  

 **************************************************************************

 **************************************************************************

                    xk=(   0.66667,   0.00000,   0.00000  )

     Band symmetry, C_2v (mm2)  point group:

     e(  1 -  1) =    -49.37747  eV     1   --> A_1  D_1  S_1  
     e(  2 -  2) =    -21.31614  eV     1   --> A_1  D_1  S_1  
     e(  3 -  4) =    -21.30412  eV     2   --> B_1  D_3  S_3  
     e(  3 -  4) =    -21.30412  eV     2   --> B_2  D_4  S_4  
     e(  5 -  5) =    -12.83276  eV     1   --> A_1  D_1  S_1  
     e(  6 -  6) =     -1.67788  eV     1   --> A_1  D_1  S_1  
     e(  7 -  8) =     -1.06489  eV     2   --> B_1  D_3  S_3  
     e(  7 -  8) =     -1.06489  eV     2   --> B_2  D_4  S_4  
     e(  9 -  9) =      6.25561  eV     1   --> A_1  D_1  S_1  
     e( 10 - 10) =      8.67929  eV     1   --> A_1  D_1  S_1  
     e( 11 - 11) =      9.48666  eV     1   --> A_1  D_1  S_1  
     e( 12 - 13) =     11.80168  eV     2   --> B_1  D_3  S_3  
     e( 12 - 13) =     11.80168  eV     2   --> B_2  D_4  S_4  
     e( 14 - 14) =     13.53802  eV     1   --> A_2  D_2  S_2  
     e( 15 - 16) =     15.83566  eV     2   --> B_1  D_3  S_3  
     e( 15 - 16) =     15.83566  eV     2   --> B_2  D_4  S_4  

 **************************************************************************

 **************************************************************************

                    xk=(   0.70000,   0.00000,   0.00000  )

     Band symmetry, C_2v (mm2)  point group:

     e(  1 -  1) =    -49.37744  eV     1   --> A_1  D_1  S_1  
     e(  2 -  2) =    -21.31691  eV     1   --> A_1  D_1  S_1  
     e(  3 -  4) =    -21.30427  eV     2   --> B_1  D_3  S_3  
     e(  3 -  4) =    -21.30427  eV     2   --> B_2  D_4  S_4  
     e(  5 -  5) =    -12.82281  eV     1   --> A_1  D_1  S_1  
     e(  6 -  6) =     -1.71378  eV     1   --> A_1  D_1  S_1  
     e(  7 -  8) =     -1.07855  eV     2   --> B_1  D_3  S_3  
     e(  7 -  8) =     -1.07855  eV     2   --> B_2  D_4  S_4  
     e(  9 -  9) =      6.29034  eV     1   --> A_1  D_1  S_1  
     e( 10 - 10) =      8.61028  eV     1   --> A_1  D_1  S_1  
     e( 11 - 11) =      9.52988  eV     1   --> A_1  D_1  S_1  
     e( 12 - 13) =     11.92272  eV     2   --> B_1  D_3  S_3  
     e( 12 - 13) =     11.92272  eV     2   --> B_2  D_4  S_4  
     e( 14 - 14) =     13.65181  eV     1   --> A_2  D_2  S_2  
     e( 15 - 16) =     15.71061  eV     2   --> B_1  D_3  S_3  
     e( 15 - 16) =     15.71061  eV     2   --> B_2  D_4  S_4  

 **************************************************************************

 **************************************************************************

                    xk=(   0.73333,   0.00000,   0.00000  )

     Band symmetry, C_2v (mm2)  point group:

     e(  1 -  1) =    -49.37743  eV     1   --> A_1  D_1  S_1  
     e(  2 -  2) =    -21.31780  eV     1   --> A_1  D_1  S_1  
     e(  3 -  4) =    -21.30449  eV     2   --> B_1  D_3  S_3  
     e(  3 -  4) =    -21.30449  eV     2   --> B_2  D_4  S_4  
     e(  5 -  5) =    -12.81358  eV     1   --> A_1  D_1  S_1  
     e(  6 -  6) =     -1.74610  eV     1   --> A_1  D_1  S_1  
     e(  7 -  8) =     -1.09116  eV     2   --> B_1  D_3  S_3  
     e(  7 -  8) =     -1.09116  eV     2   --> B_2  D_4  S_4  
     e(  9 -  9) =      6.30794  eV     1   --> A_1  D_1  S_1  
     e( 10 - 10) =      8.54891  eV     1   --> A_1  D_1  S_1  
     e( 11 - 11) =      9.59786  eV     1   --> A_1  D_1  S_1  
     e( 12 - 13) =     12.04559  eV     2   --> B_1  D_3  S_3  
     e( 12 - 13) =     12.04559  eV     2   --> B_2  D_4  S_4  
     e( 14 - 14) =     13.76415  eV     1   --> A_2  D_2  S_2  
     e( 15 - 16) =     15.57029  eV     2   --> B_1  D_3  S_3  
     e( 15 - 16) =     15.57029  eV     2   --> B_2  D_4  S_4  

 **************************************************************************

 **************************************************************************

                    xk=(   0.76667,   0.00000,   0.00000  )

     Band symmetry, C_2v (mm2)  point group:

     e(  1 -  1) =    -49.37741  eV     1   --> A_1  D_1  S_1  
     e(  2 -  2) =    -21.31855  eV     1   --> A_1  D_1  S_1  
     e(  3 -  4) =    -21.30467  eV     2   --> B_1  D_3  S_3  
     e(  3 -  4) =    -21.30467  eV     2   --> B_2  D_4  S_4  
     e(  5 -  5) =    -12.80518  eV     1   --> A_1  D_1  S_1  
     e(  6 -  6) =     -1.77474  eV     1   --> A_1  D_1  S_1  
     e(  7 -  8) =     -1.10257  eV     2   --> B_1  D_3  S_3  
     e(  7 -  8) =     -1.10257  eV     2   --> B_2  D_4  S_4  
     e(  9 -  9) =      6.31205  eV     1   --> A_1  D_1  S_1  
     e( 10 - 10) =      8.49478  eV     1   --> A_1  D_1  S_1  
     e( 11 - 11) =      9.68519  eV     1   --> A_1  D_1  S_1  
     e( 12 - 13) =     12.16900  eV     2   --> B_1  D_3  S_3  
     e( 12 - 13) =     12.16900  eV     2   --> B_2  D_4  S_4  
     e( 14 - 14) =     13.87317  eV     1   --> A_2  D_2  S_2  
     e( 15 - 16) =     15.42155  eV     2   --> B_1  D_3  S_3  
     e( 15 - 16) =     15.42155  eV     2   --> B_2  D_4  S_4  

 **************************************************************************

 **************************************************************************

                    xk=(   0.80000,   0.00000,   0.00000  )

     Band symmetry, C_2v (mm2)  point group:

     e(  1 -  1) =    -49.37740  eV     1   --> A_1  D_1  S_1  
     e(  2 -  2) =    -21.31915  eV     1   --> A_1  D_1  S_1  
     e(  3 -  4) =    -21.30486  eV     2   --> B_1  D_3  S_3  
     e(  3 -  4) =    -21.30486  eV     2   --> B_2  D_4  S_4  
     e(  5 -  5) =    -12.79770  eV     1   --> A_1  D_1  S_1  
     e(  6 -  6) =     -1.79964  eV     1   --> A_1  D_1  S_1  
     e(  7 -  8) =     -1.11270  eV     2   --> B_1  D_3  S_3  
     e(  7 -  8) =     -1.11270  eV     2   --> B_2  D_4  S_4  
     e(  9 -  9) =      6.30666  eV     1   --> A_1  D_1  S_1  
     e( 10 - 10) =      8.44760  eV     1   --> A_1  D_1  S_1  
     e( 11 - 11) =      9.78495  eV     1   --> A_1  D_1  S_1  
     e( 12 - 13) =     12.29084  eV     2   --> B_1  D_3  S_3  
     e( 12 - 13) =     12.29084  eV     2   --> B_2  D_4  S_4  
     e( 14 - 14) =     13.97659  eV     1   --> A_2  D_2  S_2  
     e( 15 - 16) =     15.27077  eV     2   --> B_1  D_3  S_3  
     e( 15 - 16) =     15.27077  eV     2   --> B_2  D_4  S_4  

 **************************************************************************

 **************************************************************************

                    xk=(   0.83333,   0.00000,   0.00000  )

     Band symmetry, C_2v (mm2)  point group:

     e(  1 -  1) =    -49.37741  eV     1   --> A_1  D_1  S_1  
     e(  2 -  2) =    -21.31977  eV     1   --> A_1  D_1  S_1  
     e(  3 -  4) =    -21.30509  eV     2   --> B_1  D_3  S_3  
     e(  3 -  4) =    -21.30509  eV     2   --> B_2  D_4  S_4  
     e(  5 -  5) =    -12.79122  eV     1   --> A_1  D_1  S_1  
     e(  6 -  6) =     -1.82077  eV     1   --> A_1  D_1  S_1  
     e(  7 -  8) =     -1.12144  eV     2   --> B_1  D_3  S_3  
     e(  7 -  8) =     -1.12144  eV     2   --> B_2  D_4  S_4  
     e(  9 -  9) =      6.29539  eV     1   --> A_1  D_1  S_1  
     e( 10 - 10) =      8.40746  eV     1   --> A_1  D_1  S_1  
     e( 11 - 11) =      9.88956  eV     1   --> A_1  D_1  S_1  
     e( 12 - 13) =     12.40829  eV     2   --> B_1  D_3  S_3  
     e( 12 - 13) =     12.40829  eV     2   --> B_2  D_4  S_4  
     e( 14 - 14) =     14.07179  eV     1   --> A_2  D_2  S_2  
     e( 15 - 16) =     15.12414  eV     2   --> B_1  D_3  S_3  
     e( 15 - 16) =     15.12414  eV     2   --> B_2  D_4  S_4  

 **************************************************************************

 **************************************************************************

                    xk=(   0.86667,   0.00000,   0.00000  )

     Band symmetry, C_2v (mm2)  point group:

     e(  1 -  1) =    -49.37743  eV     1   --> A_1  D_1  S_1  
     e(  2 -  2) =    -21.32036  eV     1   --> A_1  D_1  S_1  
     e(  3 -  4) =    -21.30532  eV     2   --> B_1  D_3  S_3  
     e(  3 -  4) =    -21.30532  eV     2   --> B_2  D_4  S_4  
     e(  5 -  5) =    -12.78582  eV     1   --> A_1  D_1  S_1  
     e(  6 -  6) =     -1.83807  eV     1   --> A_1  D_1  S_1  
     e(  7 -  8) =     -1.12871  eV     2   --> B_1  D_3  S_3  
     e(  7 -  8) =     -1.12871  eV     2   --> B_2  D_4  S_4  
     e(  9 -  9) =      6.28168  eV     1   --> A_1  D_1  S_1  
     e( 10 - 10) =      8.37440  eV     1   --> A_1  D_1  S_1  
     e( 11 - 11) =      9.99089  eV     1   --> A_1  D_1  S_1  
     e( 12 - 13) =     12.51752  eV     2   --> B_1  D_3  S_3  
     e( 12 - 13) =     12.51752  eV     2   --> B_2  D_4  S_4  
     e( 14 - 14) =     14.15587  eV     1   --> A_2  D_2  S_2  
     e( 15 - 16) =     14.98791  eV     2   --> B_1  D_3  S_3  
     e( 15 - 16) =     14.98791  eV     2   --> B_2  D_4  S_4  

 **************************************************************************

 **************************************************************************

                    xk=(   0.90000,   0.00000,   0.00000  )

     Band symmetry, C_2v (mm2)  point group:

     e(  1 -  1) =    -49.37743  eV     1   --> A_1  D_1  S_1  
     e(  2 -  2) =    -21.32073  eV     1   --> A_1  D_1  S_1  
     e(  3 -  4) =    -21.30541  eV     2   --> B_1  D_3  S_3  
     e(  3 -  4) =    -21.30541  eV     2   --> B_2  D_4  S_4  
     e(  5 -  5) =    -12.78155  eV     1   --> A_1  D_1  S_1  
     e(  6 -  6) =     -1.85153  eV     1   --> A_1  D_1  S_1  
     e(  7 -  8) =     -1.13442  eV     2   --> B_1  D_3  S_3  
     e(  7 -  8) =     -1.13442  eV     2   --> B_2  D_4  S_4  
     e(  9 -  9) =      6.26833  eV     1   --> A_1  D_1  S_1  
     e( 10 - 10) =      8.34854  eV     1   --> A_1  D_1  S_1  
     e( 11 - 11) =     10.08091  eV     1   --> A_1  D_1  S_1  
     e( 12 - 13) =     12.61364  eV     2   --> B_1  D_3  S_3  
     e( 12 - 13) =     12.61364  eV     2   --> B_2  D_4  S_4  
     e( 14 - 14) =     14.22573  eV     1   --> A_2  D_2  S_2  
     e( 15 - 16) =     14.86934  eV     2   --> B_1  D_3  S_3  
     e( 15 - 16) =     14.86934  eV     2   --> B_2  D_4  S_4  

 **************************************************************************

 **************************************************************************

                    xk=(   0.93333,   0.00000,   0.00000  )

     Band symmetry, C_2v (mm2)  point group:

     e(  1 -  1) =    -49.37741  eV     1   --> A_1  D_1  S_1  
     e(  2 -  2) =    -21.32090  eV     1   --> A_1  D_1  S_1  
     e(  3 -  4) =    -21.30547  eV     2   --> B_1  D_3  S_3  
     e(  3 -  4) =    -21.30547  eV     2   --> B_2  D_4  S_4  
     e(  5 -  5) =    -12.77846  eV     1   --> A_1  D_1  S_1  
     e(  6 -  6) =     -1.86115  eV     1   --> A_1  D_1  S_1  
     e(  7 -  8) =     -1.13853  eV     2   --> B_1  D_3  S_3  
     e(  7 -  8) =     -1.13853  eV     2   --> B_2  D_4  S_4  
     e(  9 -  9) =      6.25743  eV     1   --> A_1  D_1  S_1  
     e( 10 - 10) =      8.32999  eV     1   --> A_1  D_1  S_1  
     e( 11 - 11) =     10.15196  eV     1   --> A_1  D_1  S_1  
     e( 12 - 13) =     12.69007  eV     2   --> B_1  D_3  S_3  
     e( 12 - 13) =     12.69007  eV     2   --> B_2  D_4  S_4  
     e( 14 - 14) =     14.27834  eV     1   --> A_2  D_2  S_2  
     e( 15 - 16) =     14.77602  eV     2   --> B_1  D_3  S_3  
     e( 15 - 16) =     14.77602  eV     2   --> B_2  D_4  S_4  

 **************************************************************************

 **************************************************************************

                    xk=(   0.96667,   0.00000,   0.00000  )

     Band symmetry, C_2v (mm2)  point group:

     e(  1 -  1) =    -49.37739  eV     1   --> A_1  D_1  S_1  
     e(  2 -  2) =    -21.32094  eV     1   --> A_1  D_1  S_1  
     e(  3 -  4) =    -21.30546  eV     2   --> B_1  D_3  S_3  
     e(  3 -  4) =    -21.30546  eV     2   --> B_2  D_4  S_4  
     e(  5 -  5) =    -12.77660  eV     1   --> A_1  D_1  S_1  
     e(  6 -  6) =     -1.86692  eV     1   --> A_1  D_1  S_1  
     e(  7 -  8) =     -1.14100  eV     2   --> B_1  D_3  S_3  
     e(  7 -  8) =     -1.14100  eV     2   --> B_2  D_4  S_4  
     e(  9 -  9) =      6.25038  eV     1   --> A_1  D_1  S_1  
     e( 10 - 10) =      8.31882  eV     1   --> A_1  D_1  S_1  
     e( 11 - 11) =     10.19757  eV     1   --> A_1  D_1  S_1  
     e( 12 - 13) =     12.73993  eV     2   --> B_1  D_3  S_3  
     e( 12 - 13) =     12.73993  eV     2   --> B_2  D_4  S_4  
     e( 14 - 14) =     14.31110  eV     1   --> A_2  D_2  S_2  
     e( 15 - 16) =     14.71585  eV     2   --> B_1  D_3  S_3  
     e( 15 - 16) =     14.71585  eV     2   --> B_2  D_4  S_4  

 **************************************************************************

 **************************************************************************

                    xk=(   1.00000,   0.00000,   0.00000  )

     point group D_2d (-42m)
     there are  5 classes
     the character table:

       E     2S4   C2    2C2'  2s_d 
A_1    1.00  1.00  1.00  1.00  1.00
A_2    1.00  1.00  1.00 -1.00 -1.00
B_1    1.00 -1.00  1.00  1.00 -1.00
B_2    1.00 -1.00  1.00 -1.00  1.00
E      2.00  0.00 -2.00  0.00  0.00

     the symmetry operations in each class and the name of the first element:

     E        1
                                                                 
     2S4      7    8
                                                                 
     C2       4
                                                                 
     2C2'     2    3
                                                                 
     2s_d     5    6
                                                                 

     Band symmetry, D_2d (-42m) point group:

     e(  1 -  1) =    -49.37739  eV     1   --> A_1  X_1  W_1  
     e(  2 -  2) =    -21.32099  eV     1   --> B_2  X_3  W_2  
     e(  3 -  4) =    -21.30547  eV     2   --> E    X_5  W_3  
     e(  5 -  5) =    -12.77597  eV     1   --> B_2  X_3  W_2  
     e(  6 -  6) =     -1.86885  eV     1   --> A_1  X_1  W_1  
     e(  7 -  8) =     -1.14184  eV     2   --> E    X_5  W_3  
     e(  9 -  9) =      6.24791  eV     1   --> B_2  X_3  W_2  
     e( 10 - 10) =      8.31509  eV     1   --> A_1  X_1  W_1  
     e( 11 - 11) =     10.21330  eV     1   --> A_1  X_1  W_1  
     e( 12 - 13) =     12.75729  eV     2   --> E    X_5  W_3  
     e( 14 - 14) =     14.32223  eV     1   --> A_2  X_4  W_2' 
     e( 15 - 16) =     14.69495  eV     2   --> E    X_5  W_3  

 **************************************************************************

 **************************************************************************

                    xk=(   1.00500,  -0.03000,   0.03000  )

     point group C_s (m)    
     there are  2 classes
     the character table:

       E     s    
A'     1.00  1.00
A''    1.00 -1.00

     the symmetry operations in each class and the name of the first element:

     E        1
                                                                 
     s        2
                                                                 

     Band symmetry, C_s (m)     point group:

     e(  1 -  1) =    -49.37738  eV     1   --> A'             
     e(  2 -  2) =    -21.32096  eV     1   --> A'             
     e(  3 -  4) =    -21.30552  eV     2   --> A'             
     e(  3 -  4) =    -21.30552  eV     2   --> A''            
     e(  5 -  5) =    -12.77598  eV     1   --> A'             
     e(  6 -  6) =     -1.86594  eV     1   --> A'             
     e(  7 -  7) =     -1.14755  eV     1   --> A'             
     e(  8 -  8) =     -1.14061  eV     1   --> A''            
     e(  9 -  9) =      6.25917  eV     1   --> A'             
     e( 10 - 10) =      8.32208  eV     1   --> A'             
     e( 11 - 11) =     10.20466  eV     1   --> A'             
     e( 12 - 12) =     12.70787  eV     1   --> A''            
     e( 13 - 13) =     12.71500  eV     1   --> A'             
     e( 14 - 14) =     14.38000  eV     1   --> A''            
     e( 15 - 15) =     14.67557  eV     1   --> A''            
     e( 16 - 16) =     14.70815  eV     1   --> A'             

 **************************************************************************

 **************************************************************************

                    xk=(   1.01000,  -0.06000,   0.06000  )

     Band symmetry, C_s (m)     point group:

     e(  1 -  1) =    -49.37740  eV     1   --> A'             
     e(  2 -  2) =    -21.32086  eV     1   --> A'             
     e(  3 -  3) =    -21.30576  eV     1   --> A'             
     e(  4 -  4) =    -21.30551  eV     1   --> A''            
     e(  5 -  5) =    -12.77601  eV     1   --> A'             
     e(  6 -  6) =     -1.85726  eV     1   --> A'             
     e(  7 -  7) =     -1.16442  eV     1   --> A'             
     e(  8 -  8) =     -1.13699  eV     1   --> A''            
     e(  9 -  9) =      6.29262  eV     1   --> A'             
     e( 10 - 10) =      8.34222  eV     1   --> A'             
     e( 11 - 11) =     10.17921  eV     1   --> A'             
     e( 12 - 12) =     12.57769  eV     1   --> A''            
     e( 13 - 13) =     12.60197  eV     1   --> A'             
     e( 14 - 14) =     14.53334  eV     1   --> A''            
     e( 15 - 15) =     14.62020  eV     1   --> A''            
     e( 16 - 16) =     14.74523  eV     1   --> A'             

 **************************************************************************

 **************************************************************************

                    xk=(   1.01500,  -0.09000,   0.09000  )

     Band symmetry, C_s (m)     point group:

     e(  1 -  1) =    -49.37740  eV     1   --> A'             
     e(  2 -  2) =    -21.32070  eV     1   --> A'             
     e(  3 -  3) =    -21.30595  eV     1   --> A'             
     e(  4 -  4) =    -21.30542  eV     1   --> A''            
     e(  5 -  5) =    -12.77611  eV     1   --> A'             
     e(  6 -  6) =     -1.84296  eV     1   --> A'             
     e(  7 -  7) =     -1.19147  eV     1   --> A'             
     e(  8 -  8) =     -1.13099  eV     1   --> A''            
     e(  9 -  9) =      6.34729  eV     1   --> A'             
     e( 10 - 10) =      8.37301  eV     1   --> A'             
     e( 11 - 11) =     10.13835  eV     1   --> A'             
     e( 12 - 12) =     12.40071  eV     1   --> A''            
     e( 13 - 13) =     12.44828  eV     1   --> A'             
     e( 14 - 14) =     14.52405  eV     1   --> A''            
     e( 15 - 15) =     14.75662  eV     1   --> A''            
     e( 16 - 16) =     14.80419  eV     1   --> A'             

 **************************************************************************

 **************************************************************************

                    xk=(   1.02000,  -0.12000,   0.12000  )

     Band symmetry, C_s (m)     point group:

     e(  1 -  1) =    -49.37737  eV     1   --> A'             
     e(  2 -  2) =    -21.32045  eV     1   --> A'             
     e(  3 -  3) =    -21.30612  eV     1   --> A'             
     e(  4 -  4) =    -21.30513  eV     1   --> A''            
     e(  5 -  5) =    -12.77633  eV     1   --> A'             
     e(  6 -  6) =     -1.82325  eV     1   --> A'             
     e(  7 -  7) =     -1.22731  eV     1   --> A'             
     e(  8 -  8) =     -1.12271  eV     1   --> A''            
     e(  9 -  9) =      6.42171  eV     1   --> A'             
     e( 10 - 10) =      8.41003  eV     1   --> A'             
     e( 11 - 11) =     10.08413  eV     1   --> A'             
     e( 12 - 12) =     12.20253  eV     1   --> A''            
     e( 13 - 13) =     12.28292  eV     1   --> A'             
     e( 14 - 14) =     14.40301  eV     1   --> A''            
     e( 15 - 15) =     14.88279  eV     1   --> A'             
     e( 16 - 16) =     15.01293  eV     1   --> A''            

 **************************************************************************

 **************************************************************************

                    xk=(   1.02500,  -0.15000,   0.15000  )

     Band symmetry, C_s (m)     point group:

     e(  1 -  1) =    -49.37737  eV     1   --> A'             
     e(  2 -  2) =    -21.32021  eV     1   --> A'             
     e(  3 -  3) =    -21.30652  eV     1   --> A'             
     e(  4 -  4) =    -21.30500  eV     1   --> A''            
     e(  5 -  5) =    -12.77675  eV     1   --> A'             
     e(  6 -  6) =     -1.79853  eV     1   --> A'             
     e(  7 -  7) =     -1.27012  eV     1   --> A'             
     e(  8 -  8) =     -1.11236  eV     1   --> A''            
     e(  9 -  9) =      6.51400  eV     1   --> A'             
     e( 10 - 10) =      8.44672  eV     1   --> A'             
     e( 11 - 11) =     10.01889  eV     1   --> A'             
     e( 12 - 12) =     11.99781  eV     1   --> A''            
     e( 13 - 13) =     12.12898  eV     1   --> A'             
     e( 14 - 14) =     14.25698  eV     1   --> A''            
     e( 15 - 15) =     14.97749  eV     1   --> A'             
     e( 16 - 16) =     15.29171  eV     1   --> A''            

 **************************************************************************

 **************************************************************************

                    xk=(   1.03000,  -0.18000,   0.18000  )

     Band symmetry, C_s (m)     point group:

     e(  1 -  1) =    -49.37738  eV     1   --> A'             
     e(  2 -  2) =    -21.31989  eV     1   --> A'             
     e(  3 -  3) =    -21.30696  eV     1   --> A'             
     e(  4 -  4) =    -21.30480  eV     1   --> A''            
     e(  5 -  5) =    -12.77748  eV     1   --> A'             
     e(  6 -  6) =     -1.76932  eV     1   --> A'             
     e(  7 -  7) =     -1.31770  eV     1   --> A'             
     e(  8 -  8) =     -1.10008  eV     1   --> A''            
     e(  9 -  9) =      6.62219  eV     1   --> A'             
     e( 10 - 10) =      8.47457  eV     1   --> A'             
     e( 11 - 11) =      9.94530  eV     1   --> A'             
     e( 12 - 12) =     11.79530  eV     1   --> A''            
     e( 13 - 13) =     12.00580  eV     1   --> A'             
     e( 14 - 14) =     14.09214  eV     1   --> A''            
     e( 15 - 15) =     15.08444  eV     1   --> A'             
     e( 16 - 16) =     15.58345  eV     1   --> A''            

 **************************************************************************

 **************************************************************************

                    xk=(   1.03500,  -0.21000,   0.21000  )

     Band symmetry, C_s (m)     point group:

     e(  1 -  1) =    -49.37739  eV     1   --> A'             
     e(  2 -  2) =    -21.31959  eV     1   --> A'             
     e(  3 -  3) =    -21.30734  eV     1   --> A'             
     e(  4 -  4) =    -21.30468  eV     1   --> A''            
     e(  5 -  5) =    -12.77862  eV     1   --> A'             
     e(  6 -  6) =     -1.73643  eV     1   --> A'             
     e(  7 -  7) =     -1.36741  eV     1   --> A'             
     e(  8 -  8) =     -1.08612  eV     1   --> A''            
     e(  9 -  9) =      6.74408  eV     1   --> A'             
     e( 10 - 10) =      8.48385  eV     1   --> A'             
     e( 11 - 11) =      9.86605  eV     1   --> A'             
     e( 12 - 12) =     11.60002  eV     1   --> A''            
     e( 13 - 13) =     11.92962  eV     1   --> A'             
     e( 14 - 14) =     13.91349  eV     1   --> A''            
     e( 15 - 15) =     15.19896  eV     1   --> A'             
     e( 16 - 16) =     15.88199  eV     1   --> A''            

 **************************************************************************

 **************************************************************************

                    xk=(   1.04000,  -0.24000,   0.24000  )

     Band symmetry, C_s (m)     point group:

     e(  1 -  1) =    -49.37740  eV     1   --> A'             
     e(  2 -  2) =    -21.31923  eV     1   --> A'             
     e(  3 -  3) =    -21.30774  eV     1   --> A'             
     e(  4 -  4) =    -21.30450  eV     1   --> A''            
     e(  5 -  5) =    -12.78030  eV     1   --> A'             
     e(  6 -  6) =     -1.70132  eV     1   --> A'             
     e(  7 -  7) =     -1.41617  eV     1   --> A'             
     e(  8 -  8) =     -1.07070  eV     1   --> A''            
     e(  9 -  9) =      6.87754  eV     1   --> A'             
     e( 10 - 10) =      8.46548  eV     1   --> A'             
     e( 11 - 11) =      9.78407  eV     1   --> A'             
     e( 12 - 12) =     11.41538  eV     1   --> A''            
     e( 13 - 13) =     11.91324  eV     1   --> A'             
     e( 14 - 14) =     13.72564  eV     1   --> A''            
     e( 15 - 15) =     15.31486  eV     1   --> A'             
     e( 16 - 16) =     16.13306  eV     1   --> A'             

 **************************************************************************

 **************************************************************************

                    xk=(   1.04500,  -0.27000,   0.27000  )

     Band symmetry, C_s (m)     point group:

     e(  1 -  1) =    -49.37741  eV     1   --> A'             
     e(  2 -  2) =    -21.31896  eV     1   --> A'             
     e(  3 -  3) =    -21.30801  eV     1   --> A'             
     e(  4 -  4) =    -21.30429  eV     1   --> A''            
     e(  5 -  5) =    -12.78262  eV     1   --> A'             
     e(  6 -  6) =     -1.66705  eV     1   --> A'             
     e(  7 -  7) =     -1.45933  eV     1   --> A'             
     e(  8 -  8) =     -1.05409  eV     1   --> A''            
     e(  9 -  9) =      7.02004  eV     1   --> A'             
     e( 10 - 10) =      8.41366  eV     1   --> A'             
     e( 11 - 11) =      9.70257  eV     1   --> A'             
     e( 12 - 12) =     11.24361  eV     1   --> A''            
     e( 13 - 13) =     11.96455  eV     1   --> A'             
     e( 14 - 14) =     13.53249  eV     1   --> A''            
     e( 15 - 15) =     15.42354  eV     1   --> A'             
     e( 16 - 16) =     16.22169  eV     1   --> A'             

 **************************************************************************

 **************************************************************************

                    xk=(   1.05000,  -0.30000,   0.30000  )

     Band symmetry, C_s (m)     point group:

     e(  1 -  1) =    -49.37740  eV     1   --> A'             
     e(  2 -  2) =    -21.31858  eV     1   --> A'             
     e(  3 -  3) =    -21.30806  eV     1   --> A'             
     e(  4 -  4) =    -21.30400  eV     1   --> A''            
     e(  5 -  5) =    -12.78572  eV     1   --> A'             
     e(  6 -  6) =     -1.64134  eV     1   --> A'             
     e(  7 -  7) =     -1.48777  eV     1   --> A'             
     e(  8 -  8) =     -1.03659  eV     1   --> A''            
     e(  9 -  9) =      7.16834  eV     1   --> A'             
     e( 10 - 10) =      8.32840  eV     1   --> A'             
     e( 11 - 11) =      9.62494  eV     1   --> A'             
     e( 12 - 12) =     11.08644  eV     1   --> A''            
     e( 13 - 13) =     12.08531  eV     1   --> A'             
     e( 14 - 14) =     13.33729  eV     1   --> A''            
     e( 15 - 15) =     15.51158  eV     1   --> A'             
     e( 16 - 16) =     16.26653  eV     1   --> A'             

 **************************************************************************

 **************************************************************************

                    xk=(   1.04833,  -0.32333,   0.32333  )

     Band symmetry, C_s (m)     point group:

     e(  1 -  1) =    -49.37742  eV     1   --> A'             
     e(  2 -  2) =    -21.31838  eV     1   --> A'             
     e(  3 -  3) =    -21.30814  eV     1   --> A'             
     e(  4 -  4) =    -21.30387  eV     1   --> A''            
     e(  5 -  5) =    -12.78857  eV     1   --> A'             
     e(  6 -  6) =     -1.63010  eV     1   --> A'             
     e(  7 -  7) =     -1.49718  eV     1   --> A'             
     e(  8 -  8) =     -1.02282  eV     1   --> A''            
     e(  9 -  9) =      7.28193  eV     1   --> A'             
     e( 10 - 10) =      8.24782  eV     1   --> A'             
     e( 11 - 11) =      9.56898  eV     1   --> A'             
     e( 12 - 12) =     10.98032  eV     1   --> A''            
     e( 13 - 13) =     12.21858  eV     1   --> A'             
     e( 14 - 14) =     13.17667  eV     1   --> A''            
     e( 15 - 15) =     15.58195  eV     1   --> A'             
     e( 16 - 16) =     16.25567  eV     1   --> A'             

 **************************************************************************

 **************************************************************************

                    xk=(   1.04667,  -0.34667,   0.34667  )

     Band symmetry, C_s (m)     point group:

     e(  1 -  1) =    -49.37743  eV     1   --> A'             
     e(  2 -  2) =    -21.31817  eV     1   --> A'             
     e(  3 -  3) =    -21.30810  eV     1   --> A'             
     e(  4 -  4) =    -21.30366  eV     1   --> A''            
     e(  5 -  5) =    -12.79203  eV     1   --> A'             
     e(  6 -  6) =     -1.63345  eV     1   --> A'             
     e(  7 -  7) =     -1.48702  eV     1   --> A'             
     e(  8 -  8) =     -1.00878  eV     1   --> A''            
     e(  9 -  9) =      7.38832  eV     1   --> A'             
     e( 10 - 10) =      8.16204  eV     1   --> A'             
     e( 11 - 11) =      9.51552  eV     1   --> A'             
     e( 12 - 12) =     10.88449  eV     1   --> A''            
     e( 13 - 13) =     12.38876  eV     1   --> A'             
     e( 14 - 14) =     13.01684  eV     1   --> A''            
     e( 15 - 15) =     15.61812  eV     1   --> A'             
     e( 16 - 16) =     16.24276  eV     1   --> A'             

 **************************************************************************

 **************************************************************************

[...]

 **************************************************************************

                    xk=(   1.02333,  -0.67333,   0.67333  )

     Band symmetry, C_s (m)     point group:

     e(  1 -  1) =    -49.37760  eV     1   --> A'             
     e(  2 -  2) =    -21.31005  eV     1   --> A'             
     e(  3 -  3) =    -21.30313  eV     1   --> A'             
     e(  4 -  4) =    -21.30131  eV     1   --> A''            
     e(  5 -  5) =    -12.90580  eV     1   --> A'             
     e(  6 -  6) =     -1.44280  eV     1   --> A'             
     e(  7 -  7) =     -1.00888  eV     1   --> A'             
     e(  8 -  8) =     -0.85140  eV     1   --> A''            
     e(  9 -  9) =      5.69228  eV     1   --> A'             
     e( 10 - 10) =      9.51575  eV     1   --> A'             
     e( 11 - 11) =      9.86572  eV     1   --> A'             
     e( 12 - 12) =     10.76585  eV     1   --> A''            
     e( 13 - 13) =     11.19474  eV     1   --> A''            
     e( 14 - 14) =     12.84861  eV     1   --> A'             
     e( 15 - 15) =     14.59200  eV     1   --> A'             
     e( 16 - 16) =     15.76749  eV     1   --> A'             

 **************************************************************************

 **************************************************************************

                    xk=(   1.02167,  -0.69667,   0.69667  )

     Band symmetry, C_s (m)     point group:

     e(  1 -  1) =    -49.37760  eV     1   --> A'             
     e(  2 -  2) =    -21.30895  eV     1   --> A'             
     e(  3 -  3) =    -21.30278  eV     1   --> A'             
     e(  4 -  4) =    -21.30117  eV     1   --> A''            
     e(  5 -  5) =    -12.91656  eV     1   --> A'             
     e(  6 -  6) =     -1.39028  eV     1   --> A'             
     e(  7 -  7) =     -0.98223  eV     1   --> A'             
     e(  8 -  8) =     -0.84561  eV     1   --> A''            
     e(  9 -  9) =      5.52828  eV     1   --> A'             
     e( 10 - 10) =      9.59235  eV     1   --> A'             
     e( 11 - 11) =     10.01548  eV     1   --> A'             
     e( 12 - 12) =     10.83886  eV     1   --> A''            
     e( 13 - 13) =     11.11450  eV     1   --> A''            
     e( 14 - 14) =     12.66227  eV     1   --> A'             
     e( 15 - 15) =     14.54747  eV     1   --> A'             
     e( 16 - 16) =     15.69831  eV     1   --> A'             

 **************************************************************************

 **************************************************************************

                    xk=(   1.02000,  -0.72000,   0.72000  )

     Band symmetry, C_s (m)     point group:

     e(  1 -  1) =    -49.37762  eV     1   --> A'             
     e(  2 -  2) =    -21.30788  eV     1   --> A'             
     e(  3 -  3) =    -21.30246  eV     1   --> A'             
     e(  4 -  4) =    -21.30115  eV     1   --> A''            
     e(  5 -  5) =    -12.92715  eV     1   --> A'             
     e(  6 -  6) =     -1.33454  eV     1   --> A'             
     e(  7 -  7) =     -0.95760  eV     1   --> A'             
     e(  8 -  8) =     -0.84060  eV     1   --> A''            
     e(  9 -  9) =      5.36889  eV     1   --> A'             
     e( 10 - 10) =      9.67326  eV     1   --> A'             
     e( 11 - 11) =     10.15676  eV     1   --> A'             
     e( 12 - 12) =     10.90005  eV     1   --> A''            
     e( 13 - 13) =     11.06288  eV     1   --> A''            
     e( 14 - 14) =     12.49815  eV     1   --> A'             
     e( 15 - 15) =     14.51036  eV     1   --> A'             
     e( 16 - 16) =     15.62294  eV     1   --> A'             

 **************************************************************************

 **************************************************************************

                    xk=(   1.01833,  -0.74333,   0.74333  )

     Band symmetry, C_s (m)     point group:

     e(  1 -  1) =    -49.37765  eV     1   --> A'             
     e(  2 -  2) =    -21.30691  eV     1   --> A'             
     e(  3 -  3) =    -21.30214  eV     1   --> A'             
     e(  4 -  4) =    -21.30112  eV     1   --> A''            
     e(  5 -  5) =    -12.93745  eV     1   --> A'             
     e(  6 -  6) =     -1.27645  eV     1   --> A'             
     e(  7 -  7) =     -0.93503  eV     1   --> A'             
     e(  8 -  8) =     -0.83630  eV     1   --> A''            
     e(  9 -  9) =      5.21508  eV     1   --> A'             
     e( 10 - 10) =      9.75870  eV     1   --> A'             
     e( 11 - 11) =     10.28396  eV     1   --> A'             
     e( 12 - 12) =     10.89445  eV     1   --> A''            
     e( 13 - 13) =     11.09447  eV     1   --> A''            
     e( 14 - 14) =     12.35940  eV     1   --> A'             
     e( 15 - 15) =     14.48338  eV     1   --> A'             
     e( 16 - 16) =     15.54586  eV     1   --> A'             

 **************************************************************************

 **************************************************************************

                    xk=(   1.01667,  -0.76667,   0.76667  )

     Band symmetry, C_s (m)     point group:

     e(  1 -  1) =    -49.37765  eV     1   --> A'             
     e(  2 -  2) =    -21.30595  eV     1   --> A'             
     e(  3 -  3) =    -21.30174  eV     1   --> A'             
     e(  4 -  4) =    -21.30101  eV     1   --> A''            
     e(  5 -  5) =    -12.94734  eV     1   --> A'             
     e(  6 -  6) =     -1.21698  eV     1   --> A'             
     e(  7 -  7) =     -0.91454  eV     1   --> A'             
     e(  8 -  8) =     -0.83265  eV     1   --> A''            
     e(  9 -  9) =      5.06796  eV     1   --> A'             
     e( 10 - 10) =      9.84815  eV     1   --> A'             
     e( 11 - 11) =     10.39201  eV     1   --> A'             
     e( 12 - 12) =     10.84238  eV     1   --> A''            
     e( 13 - 13) =     11.18819  eV     1   --> A''            
     e( 14 - 14) =     12.24921  eV     1   --> A'             
     e( 15 - 15) =     14.46868  eV     1   --> A'             
     e( 16 - 16) =     15.46965  eV     1   --> A'             

 **************************************************************************

 **************************************************************************

                    xk=(   1.01500,  -0.79000,   0.79000  )

     Band symmetry, C_s (m)     point group:

     e(  1 -  1) =    -49.37766  eV     1   --> A'             
     e(  2 -  2) =    -21.30499  eV     1   --> A'             
     e(  3 -  3) =    -21.30150  eV     1   --> A'             
     e(  4 -  4) =    -21.30088  eV     1   --> A''            
     e(  5 -  5) =    -12.95671  eV     1   --> A'             
     e(  6 -  6) =     -1.15724  eV     1   --> A'             
     e(  7 -  7) =     -0.89613  eV     1   --> A'             
     e(  8 -  8) =     -0.82960  eV     1   --> A''            
     e(  9 -  9) =      4.92868  eV     1   --> A'             
     e( 10 - 10) =      9.94047  eV     1   --> A'             
     e( 11 - 11) =     10.47620  eV     1   --> A'             
     e( 12 - 12) =     10.78513  eV     1   --> A''            
     e( 13 - 13) =     11.30154  eV     1   --> A''            
     e( 14 - 14) =     12.16976  eV     1   --> A'             
     e( 15 - 15) =     14.46799  eV     1   --> A'             
     e( 16 - 16) =     15.39581  eV     1   --> A'             

 **************************************************************************

 **************************************************************************

                    xk=(   1.01333,  -0.81333,   0.81333  )

     Band symmetry, C_s (m)     point group:

     e(  1 -  1) =    -49.37767  eV     1   --> A'             
     e(  2 -  2) =    -21.30411  eV     1   --> A'             
     e(  3 -  3) =    -21.30123  eV     1   --> A'             
     e(  4 -  4) =    -21.30080  eV     1   --> A''            
     e(  5 -  5) =    -12.96543  eV     1   --> A'             
     e(  6 -  6) =     -1.09843  eV     1   --> A'             
     e(  7 -  7) =     -0.87978  eV     1   --> A'             
     e(  8 -  8) =     -0.82709  eV     1   --> A''            
     e(  9 -  9) =      4.79849  eV     1   --> A'             
     e( 10 - 10) =     10.03392  eV     1   --> A'             
     e( 11 - 11) =     10.53420  eV     1   --> A'             
     e( 12 - 12) =     10.73113  eV     1   --> A''            
     e( 13 - 13) =     11.42439  eV     1   --> A''            
     e( 14 - 14) =     12.12150  eV     1   --> A'             
     e( 15 - 15) =     14.48268  eV     1   --> A'             
     e( 16 - 16) =     15.32541  eV     1   --> A'             

 **************************************************************************

 **************************************************************************

                    xk=(   1.01167,  -0.83667,   0.83667  )

     Band symmetry, C_s (m)     point group:

     e(  1 -  1) =    -49.37767  eV     1   --> A'             
     e(  2 -  2) =    -21.30332  eV     1   --> A'             
     e(  3 -  3) =    -21.30103  eV     1   --> A'             
     e(  4 -  4) =    -21.30062  eV     1   --> A''            
     e(  5 -  5) =    -12.97341  eV     1   --> A'             
     e(  6 -  6) =     -1.04185  eV     1   --> A'             
     e(  7 -  7) =     -0.86547  eV     1   --> A'             
     e(  8 -  8) =     -0.82505  eV     1   --> A''            
     e(  9 -  9) =      4.67878  eV     1   --> A'             
     e( 10 - 10) =     10.12649  eV     1   --> A'             
     e( 11 - 11) =     10.56666  eV     1   --> A'             
     e( 12 - 12) =     10.68262  eV     1   --> A''            
     e( 13 - 13) =     11.55270  eV     1   --> A''            
     e( 14 - 14) =     12.10144  eV     1   --> A'             
     e( 15 - 15) =     14.51362  eV     1   --> A'             
     e( 16 - 16) =     15.25914  eV     1   --> A'             

 **************************************************************************

 **************************************************************************

                    xk=(   1.01000,  -0.86000,   0.86000  )

     Band symmetry, C_s (m)     point group:

     e(  1 -  1) =    -49.37768  eV     1   --> A'             
     e(  2 -  2) =    -21.30261  eV     1   --> A'             
     e(  3 -  3) =    -21.30080  eV     1   --> A'             
     e(  4 -  4) =    -21.30054  eV     1   --> A''            
     e(  5 -  5) =    -12.98053  eV     1   --> A'             
     e(  6 -  6) =     -0.98888  eV     1   --> A'             
     e(  7 -  7) =     -0.85317  eV     1   --> A'             
     e(  8 -  8) =     -0.82344  eV     1   --> A''            
     e(  9 -  9) =      4.57098  eV     1   --> A'             
     e( 10 - 10) =     10.21567  eV     1   --> A'             
     e( 11 - 11) =     10.57783  eV     1   --> A'             
     e( 12 - 12) =     10.64003  eV     1   --> A''            
     e( 13 - 13) =     11.68296  eV     1   --> A''            
     e( 14 - 14) =     12.10348  eV     1   --> A'             
     e( 15 - 15) =     14.56100  eV     1   --> A'             
     e( 16 - 16) =     15.19766  eV     1   --> A'             

 **************************************************************************

 **************************************************************************

                    xk=(   1.00833,  -0.88333,   0.88333  )

     Band symmetry, C_s (m)     point group:

     e(  1 -  1) =    -49.37770  eV     1   --> A'             
     e(  2 -  2) =    -21.30213  eV     1   --> A'             
     e(  3 -  3) =    -21.30065  eV     1   --> A'             
     e(  4 -  4) =    -21.30044  eV     1   --> A''            
     e(  5 -  5) =    -12.98672  eV     1   --> A'             
     e(  6 -  6) =     -0.94092  eV     1   --> A'             
     e(  7 -  7) =     -0.84285  eV     1   --> A'             
     e(  8 -  8) =     -0.82218  eV     1   --> A''            
     e(  9 -  9) =      4.47649  eV     1   --> A'             
     e( 10 - 10) =     10.29860  eV     1   --> A'             
     e( 11 - 11) =     10.57388  eV     1   --> A'             
     e( 12 - 12) =     10.60381  eV     1   --> A''            
     e( 13 - 13) =     11.81119  eV     1   --> A''            
     e( 14 - 14) =     12.11967  eV     1   --> A'             
     e( 15 - 15) =     14.62393  eV     1   --> A'             
     e( 16 - 16) =     15.14168  eV     1   --> A'             

 **************************************************************************

 **************************************************************************

                    xk=(   1.00667,  -0.90667,   0.90667  )

     Band symmetry, C_s (m)     point group:

     e(  1 -  1) =    -49.37771  eV     1   --> A'             
     e(  2 -  2) =    -21.30158  eV     1   --> A'             
     e(  3 -  3) =    -21.30054  eV     1   --> A'             
     e(  4 -  4) =    -21.30039  eV     1   --> A''            
     e(  5 -  5) =    -12.99190  eV     1   --> A'             
     e(  6 -  6) =     -0.89936  eV     1   --> A'             
     e(  7 -  7) =     -0.83448  eV     1   --> A'             
     e(  8 -  8) =     -0.82123  eV     1   --> A''            
     e(  9 -  9) =      4.39679  eV     1   --> A'             
     e( 10 - 10) =     10.37266  eV     1   --> A'             
     e( 11 - 11) =     10.56154  eV     1   --> A'             
     e( 12 - 12) =     10.57400  eV     1   --> A''            
     e( 13 - 13) =     11.93220  eV     1   --> A''            
     e( 14 - 14) =     12.14233  eV     1   --> A'             
     e( 15 - 15) =     14.70052  eV     1   --> A'             
     e( 16 - 16) =     15.09223  eV     1   --> A'             

 **************************************************************************

 **************************************************************************

                    xk=(   1.00500,  -0.93000,   0.93000  )

     Band symmetry, C_s (m)     point group:

     e(  1 -  1) =    -49.37769  eV     1   --> A'             
     e(  2 -  2) =    -21.30099  eV     1   --> A'             
     e(  3 -  3) =    -21.30040  eV     1   --> A'             
     e(  4 -  4) =    -21.30027  eV     1   --> A''            
     e(  5 -  5) =    -12.99599  eV     1   --> A'             
     e(  6 -  6) =     -0.86545  eV     1   --> A'             
     e(  7 -  7) =     -0.82799  eV     1   --> A'             
     e(  8 -  8) =     -0.82054  eV     1   --> A''            
     e(  9 -  9) =      4.33322  eV     1   --> A'             
     e( 10 - 10) =     10.43474  eV     1   --> A'             
     e( 11 - 11) =     10.54662  eV     1   --> A'             
     e( 12 - 12) =     10.55088  eV     1   --> A''            
     e( 13 - 13) =     12.03946  eV     1   --> A''            
     e( 14 - 14) =     12.16522  eV     1   --> A'             
     e( 15 - 15) =     14.78711  eV     1   --> A'             
     e( 16 - 16) =     15.05077  eV     1   --> A'             

 **************************************************************************

 **************************************************************************

                    xk=(   1.00333,  -0.95333,   0.95333  )

     Band symmetry, C_s (m)     point group:

     e(  1 -  1) =    -49.37768  eV     1   --> A'             
     e(  2 -  2) =    -21.30067  eV     1   --> A'             
     e(  3 -  4) =    -21.30026  eV     2   --> A'             
     e(  3 -  4) =    -21.30026  eV     2   --> A''            
     e(  5 -  5) =    -12.99895  eV     1   --> A'             
     e(  6 -  6) =     -0.84035  eV     1   --> A'             
     e(  7 -  7) =     -0.82339  eV     1   --> A'             
     e(  8 -  8) =     -0.82007  eV     1   --> A''            
     e(  9 -  9) =      4.28689  eV     1   --> A'             
     e( 10 - 10) =     10.48148  eV     1   --> A'             
     e( 11 - 11) =     10.53327  eV     1   --> A'             
     e( 12 - 12) =     10.53429  eV     1   --> A''            
     e( 13 - 13) =     12.12512  eV     1   --> A''            
     e( 14 - 14) =     12.18407  eV     1   --> A'             
     e( 15 - 15) =     14.87698  eV     1   --> A'             
     e( 16 - 16) =     15.01909  eV     1   --> A'             

 **************************************************************************

 **************************************************************************

                    xk=(   1.00167,  -0.97667,   0.97667  )

     Band symmetry, C_s (m)     point group:

     e(  1 -  1) =    -49.37768  eV     1   --> A'             
     e(  2 -  2) =    -21.30047  eV     1   --> A'             
     e(  3 -  4) =    -21.30020  eV     2   --> A'             
     e(  3 -  4) =    -21.30020  eV     2   --> A''            
     e(  5 -  5) =    -13.00074  eV     1   --> A'             
     e(  6 -  6) =     -0.82492  eV     1   --> A'             
     e(  7 -  7) =     -0.82063  eV     1   --> A'             
     e(  8 -  8) =     -0.81980  eV     1   --> A''            
     e(  9 -  9) =      4.25871  eV     1   --> A'             
     e( 10 - 10) =     10.51065  eV     1   --> A'             
     e( 11 - 11) =     10.52417  eV     1   --> A'             
     e( 12 - 12) =     10.52436  eV     1   --> A''            
     e( 13 - 13) =     12.18097  eV     1   --> A''            
     e( 14 - 14) =     12.19626  eV     1   --> A'             
     e( 15 - 15) =     14.95617  eV     1   --> A'             
     e( 16 - 16) =     14.99907  eV     1   --> A'             

 **************************************************************************

 **************************************************************************

                    xk=(   1.00000,  -1.00000,   1.00000  )

     point group T_d (-43m) 
     there are  5 classes
     the character table:

       E     8C3   3C2   6S4   6s_d 
A_1    1.00  1.00  1.00  1.00  1.00
A_2    1.00  1.00  1.00 -1.00 -1.00
E      2.00 -1.00  2.00  0.00  0.00
T_1    3.00  0.00 -1.00  1.00 -1.00
T_2    3.00  0.00 -1.00 -1.00  1.00

     the symmetry operations in each class and the name of the first element:

     E        1
                                                                 
     8C3      5    7    8    6   12    9   10   11
                                                                 
     3C2      2    3    4
                                                                 
     6S4     15   16   20   19   23   24
                                                                 
     6s_d    13   14   17   18   21   22
                                                                 

     Band symmetry, T_d (-43m)  point group:

     e(  1 -  1) =    -49.37762  eV     1   --> A_1  G_1  P_1  
     e(  2 -  4) =    -21.30001  eV     3   --> T_2  G_15 P_4  
     e(  5 -  5) =    -13.00134  eV     1   --> A_1  G_1  P_1  
     e(  6 -  8) =     -0.81972  eV     3   --> T_2  G_15 P_4  
     e(  9 -  9) =      4.24928  eV     1   --> A_1  G_1  P_1  
     e( 10 - 12) =     10.52128  eV     3   --> T_2  G_15 P_4  
     e( 13 - 14) =     12.20047  eV     2   --> E    G_12 P_3  
     e( 15 - 16) =     14.99229  eV     2   -->   ?

 **************************************************************************

     BANDS        :     22.21s CPU     23.80s WALL


   This run was terminated on:  23:17:19  11Nov2022            

=------------------------------------------------------------------------------=
   JOB DONE.
=------------------------------------------------------------------------------=
