
     Program PWSCF v.6.7MaX starts on 12Nov2022 at 14:47:37 

     This program is part of the open-source Quantum ESPRESSO suite
     for quantum simulation of materials; please cite
         "P. Giannozzi et al., J. Phys.:Condens. Matter 21 395502 (2009);
         "P. Giannozzi et al., J. Phys.:Condens. Matter 29 465901 (2017);
          URL http://www.quantum-espresso.org", 
     in publications or presentations arising from this work. More details at
     http://www.quantum-espresso.org/quote

     Parallel version (MPI), running on     1 processors

     MPI processes distributed on     1 nodes
     Waiting for input...
     Reading input from standard input
     Message from routine read_cards :
     DEPRECATED: no units specified in ATOMIC_POSITIONS card
     Message from routine read_cards :
     ATOMIC_POSITIONS: units set to alat

     Current dimensions of program PWSCF are:
     Max number of different atomic species (ntypx) = 10
     Max number of k-points (npk) =  40000
     Max angular momentum in pseudopotentials (lmaxx) =  3

     Atomic positions and unit cell read from directory:
     ./tmp/NaCl.save/

     file Na.pbe-spn-kjpaw_psl.1.0.0.UPF: wavefunction(s)  2P renormalized
     file Cl.pbe-n-kjpaw_psl.1.0.0.UPF: wavefunction(s)  3S 3P renormalized

     Subspace diagonalization in iterative solution of the eigenvalue problem:
     a serial algorithm will be used


     G-vector sticks info
     --------------------
     sticks:   dense  smooth     PW     G-vecs:    dense   smooth      PW
     Sum         847     847    271                16361    16145    2975



     bravais-lattice index     =            2
     lattice parameter (alat)  =      10.0685  a.u.
     unit-cell volume          =     255.1743 (a.u.)^3
     number of atoms/cell      =            2
     number of atomic types    =            2
     number of electrons       =        16.00
     number of Kohn-Sham states=           16
     kinetic-energy cutoff     =      60.0000  Ry
     charge density cutoff     =     244.0000  Ry
     Exchange-correlation= SLA  PW   PBX  PBC
                           (   1   4   3   4   0   0   0)

     celldm(1)=  10.068520  celldm(2)=   0.000000  celldm(3)=   0.000000
     celldm(4)=   0.000000  celldm(5)=   0.000000  celldm(6)=   0.000000

     crystal axes: (cart. coord. in units of alat)
               a(1) = (  -0.500000   0.000000   0.500000 )  
               a(2) = (   0.000000   0.500000   0.500000 )  
               a(3) = (  -0.500000   0.500000   0.000000 )  

     reciprocal axes: (cart. coord. in units 2 pi/alat)
               b(1) = ( -1.000000 -1.000000  1.000000 )  
               b(2) = (  1.000000  1.000000  1.000000 )  
               b(3) = ( -1.000000  1.000000 -1.000000 )  


     PseudoPot. # 1 for Na read from file:
     ./pseudopotentials/Na.pbe-spn-kjpaw_psl.1.0.0.UPF
     MD5 check sum: 2d3bf706d6c1b56787a12f8ec1fa0108
     Pseudo is Projector augmented-wave + core cor, Zval =  9.0
     Generated using &quot;atomic&quot; code by A. Dal Corso  v.6.3
     Shape of augmentation charge: PSQ
     Using radial grid of 1121 points,  4 beta functions with: 
                l(1) =   0
                l(2) =   0
                l(3) =   1
                l(4) =   1
     Q(r) pseudized with 0 coefficients 


     PseudoPot. # 2 for Cl read from file:
     ./pseudopotentials/Cl.pbe-n-kjpaw_psl.1.0.0.UPF
     MD5 check sum: 742572be94a3d2fc30b29275f2c5bbd2
     Pseudo is Projector augmented-wave + core cor, Zval =  7.0
     Generated using &quot;atomic&quot; code by A. Dal Corso  v.6.3
     Shape of augmentation charge: PSQ
     Using radial grid of 1157 points,  6 beta functions with: 
                l(1) =   0
                l(2) =   0
                l(3) =   1
                l(4) =   1
                l(5) =   2
                l(6) =   2
     Q(r) pseudized with 0 coefficients 


     atomic species   valence    mass     pseudopotential
        Na             9.00    22.98977     Na( 1.00)
        Cl             7.00    35.45320     Cl( 1.00)

     48 Sym. Ops., with inversion, found



   Cartesian axes

     site n.     atom                  positions (alat units)
         1           Na  tau(   1) = (   0.0000000   0.0000000   0.0000000  )
         2           Cl  tau(   2) = (   0.5000000   0.0000000   0.0000000  )

     number of k points=    91
                       cart. coord. in units 2pi/alat
        k(    1) = (   0.5000000   0.5000000   0.5000000), wk =   0.0219780
        k(    2) = (   0.4750000   0.4750000   0.4750000), wk =   0.0219780
        k(    3) = (   0.4500000   0.4500000   0.4500000), wk =   0.0219780
        k(    4) = (   0.4250000   0.4250000   0.4250000), wk =   0.0219780
        k(    5) = (   0.4000000   0.4000000   0.4000000), wk =   0.0219780
        k(    6) = (   0.3750000   0.3750000   0.3750000), wk =   0.0219780
        k(    7) = (   0.3500000   0.3500000   0.3500000), wk =   0.0219780
        k(    8) = (   0.3250000   0.3250000   0.3250000), wk =   0.0219780
        k(    9) = (   0.3000000   0.3000000   0.3000000), wk =   0.0219780
        k(   10) = (   0.2750000   0.2750000   0.2750000), wk =   0.0219780
        k(   11) = (   0.2500000   0.2500000   0.2500000), wk =   0.0219780
        k(   12) = (   0.2250000   0.2250000   0.2250000), wk =   0.0219780
        k(   13) = (   0.2000000   0.2000000   0.2000000), wk =   0.0219780
        k(   14) = (   0.1750000   0.1750000   0.1750000), wk =   0.0219780
        k(   15) = (   0.1500000   0.1500000   0.1500000), wk =   0.0219780
        k(   16) = (   0.1250000   0.1250000   0.1250000), wk =   0.0219780
        k(   17) = (   0.1000000   0.1000000   0.1000000), wk =   0.0219780
        k(   18) = (   0.0750000   0.0750000   0.0750000), wk =   0.0219780
        k(   19) = (   0.0500000   0.0500000   0.0500000), wk =   0.0219780
        k(   20) = (   0.0250000   0.0250000   0.0250000), wk =   0.0219780
        k(   21) = (   0.0000000   0.0000000   0.0000000), wk =   0.0219780
        k(   22) = (   0.0333333   0.0000000   0.0000000), wk =   0.0219780
        k(   23) = (   0.0666667   0.0000000   0.0000000), wk =   0.0219780
        k(   24) = (   0.1000000   0.0000000   0.0000000), wk =   0.0219780
        k(   25) = (   0.1333333   0.0000000   0.0000000), wk =   0.0219780
        k(   26) = (   0.1666667   0.0000000   0.0000000), wk =   0.0219780
        k(   27) = (   0.2000000   0.0000000   0.0000000), wk =   0.0219780
        k(   28) = (   0.2333333   0.0000000   0.0000000), wk =   0.0219780
        k(   29) = (   0.2666667   0.0000000   0.0000000), wk =   0.0219780
        k(   30) = (   0.3000000   0.0000000   0.0000000), wk =   0.0219780
        k(   31) = (   0.3333333   0.0000000   0.0000000), wk =   0.0219780
        k(   32) = (   0.3666667   0.0000000   0.0000000), wk =   0.0219780
        k(   33) = (   0.4000000   0.0000000   0.0000000), wk =   0.0219780
        k(   34) = (   0.4333333   0.0000000   0.0000000), wk =   0.0219780
        k(   35) = (   0.4666667   0.0000000   0.0000000), wk =   0.0219780
        k(   36) = (   0.5000000   0.0000000   0.0000000), wk =   0.0219780
        k(   37) = (   0.5333333   0.0000000   0.0000000), wk =   0.0219780
        k(   38) = (   0.5666667   0.0000000   0.0000000), wk =   0.0219780
        k(   39) = (   0.6000000   0.0000000   0.0000000), wk =   0.0219780
        k(   40) = (   0.6333333   0.0000000   0.0000000), wk =   0.0219780
        k(   41) = (   0.6666667   0.0000000   0.0000000), wk =   0.0219780
        k(   42) = (   0.7000000   0.0000000   0.0000000), wk =   0.0219780
        k(   43) = (   0.7333333   0.0000000   0.0000000), wk =   0.0219780
        k(   44) = (   0.7666667   0.0000000   0.0000000), wk =   0.0219780
        k(   45) = (   0.8000000   0.0000000   0.0000000), wk =   0.0219780
        k(   46) = (   0.8333333   0.0000000   0.0000000), wk =   0.0219780
        k(   47) = (   0.8666667   0.0000000   0.0000000), wk =   0.0219780
        k(   48) = (   0.9000000   0.0000000   0.0000000), wk =   0.0219780
        k(   49) = (   0.9333333   0.0000000   0.0000000), wk =   0.0219780
        k(   50) = (   0.9666667   0.0000000   0.0000000), wk =   0.0219780
        k(   51) = (   1.0000000   0.0000000   0.0000000), wk =   0.0219780
        k(   52) = (   1.0050000  -0.0300000   0.0300000), wk =   0.0219780
        k(   53) = (   1.0100000  -0.0600000   0.0600000), wk =   0.0219780
        k(   54) = (   1.0150000  -0.0900000   0.0900000), wk =   0.0219780
        k(   55) = (   1.0200000  -0.1200000   0.1200000), wk =   0.0219780
        k(   56) = (   1.0250000  -0.1500000   0.1500000), wk =   0.0219780
        k(   57) = (   1.0300000  -0.1800000   0.1800000), wk =   0.0219780
        k(   58) = (   1.0350000  -0.2100000   0.2100000), wk =   0.0219780
        k(   59) = (   1.0400000  -0.2400000   0.2400000), wk =   0.0219780
        k(   60) = (   1.0450000  -0.2700000   0.2700000), wk =   0.0219780
        k(   61) = (   1.0500000  -0.3000000   0.3000000), wk =   0.0219780
        k(   62) = (   1.0483333  -0.3233333   0.3233333), wk =   0.0219780
        k(   63) = (   1.0466667  -0.3466667   0.3466667), wk =   0.0219780
        k(   64) = (   1.0450000  -0.3700000   0.3700000), wk =   0.0219780
        k(   65) = (   1.0433333  -0.3933333   0.3933333), wk =   0.0219780
        k(   66) = (   1.0416667  -0.4166667   0.4166667), wk =   0.0219780
        k(   67) = (   1.0400000  -0.4400000   0.4400000), wk =   0.0219780
        k(   68) = (   1.0383333  -0.4633333   0.4633333), wk =   0.0219780
        k(   69) = (   1.0366667  -0.4866667   0.4866667), wk =   0.0219780
        k(   70) = (   1.0350000  -0.5100000   0.5100000), wk =   0.0219780
        k(   71) = (   1.0333333  -0.5333333   0.5333333), wk =   0.0219780
        k(   72) = (   1.0316667  -0.5566667   0.5566667), wk =   0.0219780
        k(   73) = (   1.0300000  -0.5800000   0.5800000), wk =   0.0219780
        k(   74) = (   1.0283333  -0.6033333   0.6033333), wk =   0.0219780
        k(   75) = (   1.0266667  -0.6266667   0.6266667), wk =   0.0219780
        k(   76) = (   1.0250000  -0.6500000   0.6500000), wk =   0.0219780
        k(   77) = (   1.0233333  -0.6733333   0.6733333), wk =   0.0219780
        k(   78) = (   1.0216667  -0.6966667   0.6966667), wk =   0.0219780
        k(   79) = (   1.0200000  -0.7200000   0.7200000), wk =   0.0219780
        k(   80) = (   1.0183333  -0.7433333   0.7433333), wk =   0.0219780
        k(   81) = (   1.0166667  -0.7666667   0.7666667), wk =   0.0219780
        k(   82) = (   1.0150000  -0.7900000   0.7900000), wk =   0.0219780
        k(   83) = (   1.0133333  -0.8133333   0.8133333), wk =   0.0219780
        k(   84) = (   1.0116667  -0.8366667   0.8366667), wk =   0.0219780
        k(   85) = (   1.0100000  -0.8600000   0.8600000), wk =   0.0219780
        k(   86) = (   1.0083333  -0.8833333   0.8833333), wk =   0.0219780
        k(   87) = (   1.0066667  -0.9066667   0.9066667), wk =   0.0219780
        k(   88) = (   1.0050000  -0.9300000   0.9300000), wk =   0.0219780
        k(   89) = (   1.0033333  -0.9533333   0.9533333), wk =   0.0219780
        k(   90) = (   1.0016667  -0.9766667   0.9766667), wk =   0.0219780
        k(   91) = (   1.0000000  -1.0000000   1.0000000), wk =   0.0219780

     Dense  grid:    16361 G-vectors     FFT dimensions: (  36,  36,  36)

     Smooth grid:    16145 G-vectors     FFT dimensions: (  36,  36,  36)

     Estimated max dynamical RAM per process >      56.38 MB

     Check: negative core charge=   -0.000007

     The potential is recalculated from file :
     ./tmp/NaCl.save/charge-density

     Starting wfcs are    9 randomized atomic wfcs +    7 random wfcs
     Checking if some PAW data can be deallocated... 

     Band Structure Calculation
     Davidson diagonalization with overlap

     ethr =  6.25E-11,  avg # of iterations = 49.4

     total cpu time spent up to now is       92.4 secs

     End of band structure calculation

          k = 0.5000 0.5000 0.5000 (  2006 PWs)   bands (ev):

   -46.2591 -18.2409 -18.1801 -18.1801 -10.1640  -0.1035   2.0185   2.0185
     9.9408  13.6708  13.6708  14.5016  18.6107  18.8486  18.8486  20.9518

          k = 0.4750 0.4750 0.4750 (  2012 PWs)   bands (ev):

   -46.2591 -18.2406 -18.1801 -18.1801 -10.1677  -0.0912   2.0206   2.0206
     9.9430  13.6758  13.6758  14.4638  18.6189  18.7403  18.7403  21.0793

          k = 0.4500 0.4500 0.4500 (  2009 PWs)   bands (ev):

   -46.2591 -18.2393 -18.1801 -18.1801 -10.1787  -0.0544   2.0270   2.0270
     9.9500  13.6908  13.6908  14.3549  18.4721  18.4721  18.6445  21.4050

          k = 0.4250 0.4250 0.4250 (  2015 PWs)   bands (ev):

   -46.2592 -18.2376 -18.1800 -18.1800 -10.1967   0.0061   2.0375   2.0375
     9.9595  13.7155  13.7155  14.1865  18.1305  18.1305  18.6889  21.7044

          k = 0.4000 0.4000 0.4000 (  2000 PWs)   bands (ev):

   -46.2593 -18.2347 -18.1797 -18.1797 -10.2210   0.0896   2.0520   2.0520
     9.9703  13.7491  13.7491  13.9751  17.7658  17.7658  18.7537  22.0366

          k = 0.3750 0.3750 0.3750 (  2018 PWs)   bands (ev):

   -46.2594 -18.2320 -18.1796 -18.1796 -10.2510   0.1948   2.0701   2.0701
     9.9771  13.7387  13.7895  13.7895  17.4023  17.4023  18.8380  22.4241

          k = 0.3500 0.3500 0.3500 (  2006 PWs)   bands (ev):

   -46.2595 -18.2279 -18.1793 -18.1793 -10.2857   0.3201   2.0914   2.0914
     9.9764  13.4958  13.8356  13.8356  17.0533  17.0533  18.9414  22.8446

          k = 0.3250 0.3250 0.3250 (  2006 PWs)   bands (ev):

   -46.2596 -18.2236 -18.1790 -18.1790 -10.3242   0.4635   2.1156   2.1156
     9.9602  13.2642  13.8837  13.8837  16.7271  16.7271  19.0600  23.2421

          k = 0.3000 0.3000 0.3000 (  2006 PWs)   bands (ev):

   -46.2598 -18.2190 -18.1787 -18.1787 -10.3654   0.6229   2.1421   2.1421
     9.9204  13.0612  13.9300  13.9300  16.4312  16.4312  19.1901  23.3769

          k = 0.2750 0.2750 0.2750 (  2000 PWs)   bands (ev):

   -46.2599 -18.2138 -18.1785 -18.1785 -10.4082   0.7957   2.1702   2.1702
     9.8487  12.9022  13.9689  13.9689  16.1728  16.1728  19.3261  22.9899

          k = 0.2500 0.2500 0.2500 (  1997 PWs)   bands (ev):

   -46.2601 -18.2087 -18.1781 -18.1781 -10.4515   0.9791   2.1994   2.1994
     9.7398  12.7981  13.9932  13.9932  15.9595  15.9595  19.4566  22.4462

          k = 0.2250 0.2250 0.2250 (  2000 PWs)   bands (ev):

   -46.2602 -18.2037 -18.1779 -18.1779 -10.4942   1.1696   2.2289   2.2289
     9.5934  12.7536  13.9956  13.9956  15.7984  15.7984  19.5638  21.9178

          k = 0.2000 0.2000 0.2000 (  2012 PWs)   bands (ev):

   -46.2604 -18.1990 -18.1777 -18.1777 -10.5354   1.3635   2.2581   2.2581
     9.4157  12.7659  13.9713  13.9713  15.6937  15.6937  19.6129  21.4674

          k = 0.1750 0.1750 0.1750 (  2006 PWs)   bands (ev):

   -46.2606 -18.1941 -18.1773 -18.1773 -10.5740   1.5565   2.2861   2.2861
     9.2177  12.8271  13.9210  13.9210  15.6434  15.6434  19.5507  21.1583

          k = 0.1500 0.1500 0.1500 (  1995 PWs)   bands (ev):

   -46.2607 -18.1897 -18.1768 -18.1768 -10.6093   1.7435   2.3124   2.3124
     9.0115  12.9262  13.8517  13.8517  15.6380  15.6380  19.3433  21.0260

          k = 0.1250 0.1250 0.1250 (  2004 PWs)   bands (ev):

   -46.2608 -18.1859 -18.1768 -18.1768 -10.6405   1.9190   2.3360   2.3360
     8.8100  13.0507  13.7739  13.7739  15.6636  15.6636  19.0374  21.0270

          k = 0.1000 0.1000 0.1000 (  2004 PWs)   bands (ev):

   -46.2609 -18.1825 -18.1766 -18.1766 -10.6669   2.0764   2.3563   2.3563
     8.6250  13.1871  13.6979  13.6979  15.7063  15.7063  18.7076  21.0906

          k = 0.0750 0.0750 0.0750 (  2016 PWs)   bands (ev):

   -46.2611 -18.1800 -18.1766 -18.1766 -10.6880   2.2089   2.3728   2.3728
     8.4674  13.3203  13.6316  13.6316  15.7538  15.7538  18.4058  21.1695

          k = 0.0500 0.0500 0.0500 (  2013 PWs)   bands (ev):

   -46.2611 -18.1782 -18.1763 -18.1763 -10.7033   2.3099   2.3850   2.3850
     8.3468  13.4337  13.5809  13.5809  15.7956  15.7956  18.1653  21.2391

          k = 0.0250 0.0250 0.0250 (  2001 PWs)   bands (ev):

   -46.2611 -18.1769 -18.1761 -18.1761 -10.7127   2.3733   2.3925   2.3925
     8.2711  13.5108  13.5491  13.5491  15.8240  15.8240  18.0100  21.2871

          k = 0.0000 0.0000 0.0000 (  1989 PWs)   bands (ev):

   -46.2611 -18.1760 -18.1760 -18.1760 -10.7158   2.3950   2.3950   2.3950
     8.2452  13.5383  13.5383  13.5383  15.8340  15.8340  17.9562  21.3058

          k = 0.0333 0.0000 0.0000 (  1989 PWs)   bands (ev):

   -46.2611 -18.1762 -18.1761 -18.1761 -10.7139   2.3843   2.3925   2.3925
     8.2606  13.5171  13.5471  13.5471  15.8179  15.8382  17.9882  21.3130

          k = 0.0667 0.0000 0.0000 (  2013 PWs)   bands (ev):

   -46.2611 -18.1773 -18.1764 -18.1764 -10.7084   2.3523   2.3849   2.3849
     8.3062  13.4554  13.5735  13.5735  15.7700  15.8506  18.0824  21.3337

          k = 0.1000 0.0000 0.0000 (  2025 PWs)   bands (ev):

   -46.2611 -18.1781 -18.1769 -18.1769 -10.6992   2.3006   2.3724   2.3724
     8.3807  13.3583  13.6173  13.6173  15.6920  15.8712  18.2338  21.3686

          k = 0.1333 0.0000 0.0000 (  2017 PWs)   bands (ev):

   -46.2611 -18.1791 -18.1772 -18.1772 -10.6866   2.2313   2.3554   2.3554
     8.4819  13.2323  13.6782  13.6782  15.5868  15.9001  18.4356  21.4197

          k = 0.1667 0.0000 0.0000 (  2025 PWs)   bands (ev):

   -46.2610 -18.1806 -18.1777 -18.1777 -10.6706   2.1467   2.3339   2.3339
     8.6069  13.0846  13.7558  13.7558  15.4576  15.9370  18.6806  21.4842

          k = 0.2000 0.0000 0.0000 (  2017 PWs)   bands (ev):

   -46.2609 -18.1823 -18.1780 -18.1780 -10.6516   2.0496   2.3084   2.3084
     8.7528  12.9217  13.8496  13.8496  15.3085  15.9818  18.9624  21.5644

          k = 0.2333 0.0000 0.0000 (  2017 PWs)   bands (ev):

   -46.2608 -18.1843 -18.1786 -18.1786 -10.6297   1.9428   2.2793   2.2793
     8.9162  12.7489  13.9588  13.9588  15.1434  16.0343  19.2752  21.6583

          k = 0.2667 0.0000 0.0000 (  2009 PWs)   bands (ev):

   -46.2607 -18.1864 -18.1790 -18.1790 -10.6053   1.8290   2.2470   2.2470
     9.0938  12.5707  14.0830  14.0830  14.9666  16.0944  19.6146  21.7669

          k = 0.3000 0.0000 0.0000 (  2009 PWs)   bands (ev):

   -46.2606 -18.1888 -18.1797 -18.1797 -10.5787   1.7106   2.2121   2.2121
     9.2819  12.3904  14.2212  14.2212  14.7827  16.1617  19.9769  21.8885

          k = 0.3333 0.0000 0.0000 (  2001 PWs)   bands (ev):

   -46.2604 -18.1909 -18.1804 -18.1804 -10.5502   1.5900   2.1750   2.1750
     9.4772  12.2109  14.3728  14.3728  14.5967  16.2359  20.3590  22.0231

          k = 0.3667 0.0000 0.0000 (  2001 PWs)   bands (ev):

   -46.2603 -18.1933 -18.1811 -18.1811 -10.5203   1.4690   2.1361   2.1361
     9.6756  12.0342  14.4122  14.5368  14.5368  16.3166  20.7585  22.1693

          k = 0.4000 0.0000 0.0000 (  2001 PWs)   bands (ev):

   -46.2602 -18.1958 -18.1819 -18.1819 -10.4893   1.3494   2.0961   2.0961
     9.8731  11.8618  14.2349  14.7126  14.7126  16.4035  21.1734  22.3250

          k = 0.4333 0.0000 0.0000 (  2008 PWs)   bands (ev):

   -46.2601 -18.1984 -18.1828 -18.1828 -10.4575   1.2326   2.0554   2.0554
    10.0648  11.6951  14.0695  14.8993  14.8993  16.4960  21.6020  22.4864

          k = 0.4667 0.0000 0.0000 (  2000 PWs)   bands (ev):

   -46.2599 -18.2008 -18.1834 -18.1834 -10.4255   1.1200   2.0145   2.0145
    10.2454  11.5351  13.9240  15.0963  15.0963  16.5936  22.0425  22.6476

          k = 0.5000 0.0000 0.0000 (  1996 PWs)   bands (ev):

   -46.2597 -18.2029 -18.1842 -18.1842 -10.3936   1.0124   1.9739   1.9739
    10.4084  11.3824  13.8047  15.3025  15.3025  16.6954  22.4932  22.7940

          k = 0.5333 0.0000 0.0000 (  2008 PWs)   bands (ev):

   -46.2596 -18.2053 -18.1852 -18.1852 -10.3621   0.9107   1.9339   1.9339
    10.5471  11.2378  13.7180  15.5173  15.5173  16.8008  22.9007  22.9007

          k = 0.5667 0.0000 0.0000 (  2008 PWs)   bands (ev):

   -46.2595 -18.2072 -18.1861 -18.1861 -10.3314   0.8156   1.8950   1.8950
    10.6552  11.1018  13.6720  15.7401  15.7401  16.9089  22.9297  22.9297

          k = 0.6000 0.0000 0.0000 (  2008 PWs)   bands (ev):

   -46.2594 -18.2090 -18.1869 -18.1869 -10.3018   0.7275   1.8576   1.8576
    10.7281  10.9747  13.6708  15.9703  15.9703  17.0186  22.8463  22.8463

          k = 0.6333 0.0000 0.0000 (  2000 PWs)   bands (ev):

   -46.2592 -18.2104 -18.1876 -18.1876 -10.2737   0.6468   1.8219   1.8219
    10.7650  10.8569  13.7154  16.2074  16.2074  17.1287  22.6580  22.6580

          k = 0.6667 0.0000 0.0000 (  2000 PWs)   bands (ev):

   -46.2591 -18.2118 -18.1884 -18.1884 -10.2473   0.5735   1.7884   1.7884
    10.7487  10.7688  13.8020  16.4506  16.4506  17.2381  22.4017  22.4017

          k = 0.7000 0.0000 0.0000 (  1996 PWs)   bands (ev):

   -46.2590 -18.2129 -18.1891 -18.1891 -10.2228   0.5079   1.7573   1.7573
    10.6502  10.7461  13.9231  16.6996  16.6996  17.3450  22.1099  22.1099

          k = 0.7333 0.0000 0.0000 (  2004 PWs)   bands (ev):

   -46.2589 -18.2142 -18.1898 -18.1898 -10.2004   0.4497   1.7288   1.7288
    10.5617  10.7045  14.0692  16.9536  16.9536  17.4480  21.8009  21.8009

          k = 0.7667 0.0000 0.0000 (  2004 PWs)   bands (ev):

   -46.2588 -18.2151 -18.1905 -18.1905 -10.1804   0.3990   1.7031   1.7031
    10.4833  10.6521  14.2310  17.2123  17.2123  17.5453  21.4852  21.4852

          k = 0.8000 0.0000 0.0000 (  2016 PWs)   bands (ev):

   -46.2587 -18.2162 -18.1911 -18.1911 -10.1627   0.3556   1.6805   1.6805
    10.4151  10.5952  14.3978  17.4748  17.4748  17.6351  21.1685  21.1685

          k = 0.8333 0.0000 0.0000 (  2012 PWs)   bands (ev):

   -46.2586 -18.2166 -18.1916 -18.1916 -10.1477   0.3194   1.6611   1.6611
    10.3573  10.5395  14.5617  17.7153  17.7403  17.7403  20.8546  20.8546

          k = 0.8667 0.0000 0.0000 (  2008 PWs)   bands (ev):

   -46.2586 -18.2169 -18.1920 -18.1920 -10.1353   0.2902   1.6451   1.6451
    10.3099  10.4891  14.7125  17.7842  18.0072  18.0072  20.5469  20.5469

          k = 0.9000 0.0000 0.0000 (  2012 PWs)   bands (ev):

   -46.2585 -18.2173 -18.1923 -18.1923 -10.1255   0.2676   1.6325   1.6325
    10.2730  10.4470  14.8416  17.8400  18.2715  18.2715  20.2498  20.2498

          k = 0.9333 0.0000 0.0000 (  2020 PWs)   bands (ev):

   -46.2585 -18.2177 -18.1927 -18.1927 -10.1186   0.2516   1.6234   1.6234
    10.2465  10.4154  14.9409  17.8810  18.5244  18.5244  19.9729  19.9729

          k = 0.9667 0.0000 0.0000 (  2028 PWs)   bands (ev):

   -46.2585 -18.2180 -18.1929 -18.1929 -10.1144   0.2420   1.6179   1.6179
    10.2307  10.3958  15.0034  17.9062  18.7396  18.7396  19.7432  19.7432

          k = 1.0000 0.0000 0.0000 (  2044 PWs)   bands (ev):

   -46.2586 -18.2185 -18.1930 -18.1930 -10.1130   0.2387   1.6161   1.6161
    10.2254  10.3891  15.0243  17.9146  18.8376  18.8376  19.6401  19.6401

          k = 1.0050-0.0300 0.0300 (  2030 PWs)   bands (ev):

   -46.2585 -18.2180 -18.1932 -18.1928 -10.1124   0.2436   1.6020   1.6179
    10.2447  10.4089  14.9978  17.7960  18.7851  18.9674  19.6181  19.6736

          k = 1.0100-0.0600 0.0600 (  2015 PWs)   bands (ev):

   -46.2585 -18.2175 -18.1937 -18.1925 -10.1107   0.2581   1.5606   1.6234
    10.2936  10.4758  14.9195  17.5436  18.6434  19.2446  19.5612  19.7678

          k = 1.0150-0.0900 0.0900 (  2012 PWs)   bands (ev):

   -46.2585 -18.2169 -18.1951 -18.1921 -10.1080   0.2818   1.4948   1.6325
    10.3554  10.6022  14.7961  17.2563  18.4423  19.3831  19.6583  19.9118

          k = 1.0200-0.1200 0.1200 (  2016 PWs)   bands (ev):

   -46.2585 -18.2162 -18.1970 -18.1916 -10.1047   0.3147   1.4090   1.6450
    10.4246  10.7869  14.6366  16.9658  18.2108  19.2478  20.0166  20.0954

          k = 1.0250-0.1500 0.1500 (  2014 PWs)   bands (ev):

   -46.2585 -18.2152 -18.1991 -18.1910 -10.1010   0.3561   1.3083   1.6609
    10.5037  11.0182  14.4505  16.6831  17.9716  19.0590  20.3094  20.4097

          k = 1.0300-0.1800 0.1800 (  2015 PWs)   bands (ev):

   -46.2585 -18.2142 -18.2015 -18.1903 -10.0975   0.4054   1.1988   1.6801
    10.5944  11.2830  14.2467  16.4126  17.7413  18.8381  20.5444  20.8170

          k = 1.0350-0.2100 0.2100 (  2013 PWs)   bands (ev):

   -46.2585 -18.2130 -18.2040 -18.1895 -10.0945   0.4611   1.0867   1.7023
    10.6964  11.5674  14.0334  16.1570  17.5355  18.5933  20.7915  21.2330

          k = 1.0400-0.2400 0.2400 (  2015 PWs)   bands (ev):

   -46.2585 -18.2123 -18.2061 -18.1887 -10.0928   0.5201   0.9799   1.7273
    10.8083  11.8554  13.8179  15.9174  17.3700  18.3313  21.0399  21.6544

          k = 1.0450-0.2700 0.2700 (  2012 PWs)   bands (ev):

   -46.2585 -18.2129 -18.2067 -18.1876 -10.0928   0.5740   0.8906   1.7549
    10.9273  12.1280  13.6078  15.6954  17.2628  18.0580  21.2730  22.0782

          k = 1.0500-0.3000 0.3000 (  1998 PWs)   bands (ev):

   -46.2585 -18.2145 -18.2057 -18.1865 -10.0952   0.5990   0.8463   1.7848
    11.0495  12.3635  13.4125  15.4912  17.2331  17.7787  21.4555  22.3434

          k = 1.0483-0.3233 0.3233 (  1999 PWs)   bands (ev):

   -46.2586 -18.2160 -18.2048 -18.1856 -10.0987   0.5936   0.8474   1.8089
    11.1432  12.5066  13.2781  15.3553  17.2654  17.5458  21.5616  22.3304

          k = 1.0467-0.3467 0.3467 (  2001 PWs)   bands (ev):

   -46.2586 -18.2177 -18.2037 -18.1847 -10.1042   0.5648   0.8842   1.8341
    11.2329  12.6097  13.1566  15.2314  17.3122  17.3629  21.5469  22.3879

          k = 1.0450-0.3700 0.3700 (  2001 PWs)   bands (ev):

   -46.2587 -18.2190 -18.2024 -18.1839 -10.1121   0.5299   0.9405   1.8603
    11.3137  12.6707  13.0523  15.1195  17.0795  17.5284  21.4030  22.5180

          k = 1.0433-0.3933 0.3933 (  2001 PWs)   bands (ev):

   -46.2587 -18.2201 -18.2011 -18.1831 -10.1224   0.4990   1.0065   1.8874
    11.3792  12.6912  12.9711  15.0199  16.8493  17.7601  21.1682  22.6563

          k = 1.0417-0.4167 0.4167 (  2001 PWs)   bands (ev):

   -46.2588 -18.2210 -18.1996 -18.1824 -10.1352   0.4766   1.0780   1.9151
    11.4220  12.6750  12.9214  14.9328  16.6227  18.0528  20.8736  22.6530

          k = 1.0400-0.4400 0.4400 (  2001 PWs)   bands (ev):

   -46.2588 -18.2214 -18.1982 -18.1817 -10.1507   0.4649   1.1532   1.9434
    11.4353  12.6291  12.9101  14.8582  16.4008  18.3989  20.5384  22.4955

          k = 1.0383-0.4633 0.4633 (  2001 PWs)   bands (ev):

   -46.2589 -18.2217 -18.1967 -18.1810 -10.1688   0.4652   1.2306   1.9720
    11.4145  12.5655  12.9361  14.7963  16.1845  18.7903  20.1760  22.3137

          k = 1.0367-0.4867 0.4867 (  2003 PWs)   bands (ev):

   -46.2590 -18.2215 -18.1952 -18.1804 -10.1894   0.4779   1.3095   2.0007
    11.3598  12.4956  12.9942  14.7467  15.9748  19.2195  19.7971  22.1364

          k = 1.0350-0.5100 0.5100 (  1999 PWs)   bands (ev):

   -46.2591 -18.2210 -18.1936 -18.1797 -10.2126   0.5035   1.3891   2.0295
    11.2741  12.4279  13.0779  14.7099  15.7723  19.4083  19.6817  21.9688

          k = 1.0333-0.5333 0.5333 (  1995 PWs)   bands (ev):

   -46.2592 -18.2198 -18.1922 -18.1792 -10.2380   0.5419   1.4687   2.0581
    11.1625  12.3681  13.1802  14.6849  15.5780  19.0200  20.1668  21.8121

          k = 1.0317-0.5567 0.5567 (  1999 PWs)   bands (ev):

   -46.2593 -18.2186 -18.1908 -18.1787 -10.2655   0.5930   1.5476   2.0864
    11.0291  12.3203  13.2942  14.6712  15.3929  18.6349  20.6697  21.6685

          k = 1.0300-0.5800 0.5800 (  2003 PWs)   bands (ev):

   -46.2595 -18.2171 -18.1895 -18.1782 -10.2948   0.6564   1.6255   2.1142
    10.8787  12.2869  13.4143  14.6670  15.2191  18.2586  21.1643  21.5565

          k = 1.0283-0.6033 0.6033 (  2003 PWs)   bands (ev):

   -46.2596 -18.2151 -18.1881 -18.1778 -10.3255   0.7317   1.7015   2.1413
    10.7153  12.2696  13.5354  14.6677  15.0612  17.8955  21.3365  21.7535

          k = 1.0267-0.6267 0.6267 (  1999 PWs)   bands (ev):

   -46.2597 -18.2127 -18.1868 -18.1774 -10.3575   0.8181   1.7754   2.1677
    10.5419  12.2688  13.6530  14.6591  14.9336  17.5497  21.2288  21.8039

          k = 1.0250-0.6500 0.6500 (  1995 PWs)   bands (ev):

   -46.2598 -18.2100 -18.1856 -18.1770 -10.3901   0.9147   1.8465   2.1931
    10.3611  12.2848  13.7623  14.6060  14.8711  17.2255  21.0994  21.6547

          k = 1.0233-0.6733 0.6733 (  1997 PWs)   bands (ev):

   -46.2599 -18.2072 -18.1844 -18.1768 -10.4231   1.0206   1.9143   2.2174
    10.1751  12.3175  13.8588  14.5023  14.8791  16.9273  20.9536  21.5124

          k = 1.0217-0.6967 0.6967 (  1993 PWs)   bands (ev):

   -46.2601 -18.2041 -18.1833 -18.1766 -10.4561   1.1346   1.9786   2.2405
     9.9860  12.3663  13.9377  14.3827  14.9231  16.6600  20.7822  21.3942

          k = 1.0200-0.7200 0.7200 (  1996 PWs)   bands (ev):

   -46.2602 -18.2010 -18.1823 -18.1765 -10.4886   1.2551   2.0390   2.2624
     9.7955  12.4307  13.9940  14.2640  14.9848  16.4281  20.5780  21.3048

          k = 1.0183-0.7433 0.7433 (  1999 PWs)   bands (ev):

   -46.2603 -18.1980 -18.1814 -18.1764 -10.5202   1.3807   2.0951   2.2828
     9.6054  12.5096  14.0238  14.1515  15.0585  16.2358  20.3410  21.2429

          k = 1.0167-0.7667 0.7667 (  2000 PWs)   bands (ev):

   -46.2605 -18.1948 -18.1805 -18.1764 -10.5506   1.5095   2.1468   2.3017
     9.4177  12.6018  14.0246  14.0471  15.1410  16.0855  20.0761  21.2048

          k = 1.0150-0.7900 0.7900 (  2006 PWs)   bands (ev):

   -46.2606 -18.1920 -18.1797 -18.1763 -10.5794   1.6394   2.1938   2.3190
     9.2343  12.7056  13.9517  13.9974  15.2296  15.9760  19.7916  21.1852

          k = 1.0133-0.8133 0.8133 (  2003 PWs)   bands (ev):

   -46.2607 -18.1890 -18.1790 -18.1762 -10.6061   1.7679   2.2360   2.3346
     9.0577  12.8188  13.8657  13.9471  15.3223  15.9031  19.4973  21.1814

          k = 1.0117-0.8367 0.8367 (  2003 PWs)   bands (ev):

   -46.2608 -18.1862 -18.1783 -18.1762 -10.6305   1.8924   2.2733   2.3486
     8.8905  12.9384  13.7894  13.8812  15.4162  15.8592  19.2035  21.1891

          k = 1.0100-0.8600 0.8600 (  2005 PWs)   bands (ev):

   -46.2609 -18.1837 -18.1778 -18.1762 -10.6523   2.0100   2.3056   2.3608
     8.7356  13.0608  13.7231  13.8081  15.5083  15.8362  18.9201  21.2052

          k = 1.0083-0.8833 0.8833 (  2003 PWs)   bands (ev):

   -46.2609 -18.1815 -18.1773 -18.1762 -10.6712   2.1175   2.3329   2.3711
     8.5962  13.1814  13.6668  13.7354  15.5956  15.8267  18.6568  21.2264

          k = 1.0067-0.9067 0.9067 (  2009 PWs)   bands (ev):

   -46.2610 -18.1798 -18.1770 -18.1762 -10.6870   2.2116   2.3553   2.3797
     8.4758  13.2944  13.6206  13.6692  15.6744  15.8251  18.4229  21.2490

          k = 1.0050-0.9300 0.9300 (  2013 PWs)   bands (ev):

   -46.2611 -18.1785 -18.1767 -18.1762 -10.6995   2.2891   2.3727   2.3864
     8.3777  13.3933  13.5846  13.6138  15.7408  15.8273  18.2276  21.2700

          k = 1.0033-0.9533 0.9533 (  2009 PWs)   bands (ev):

   -46.2611 -18.1775 -18.1764 -18.1761 -10.7085   2.3470   2.3851   2.3912
     8.3050  13.4711  13.5589  13.5724  15.7914  15.8305  18.0800  21.2874

          k = 1.0017-0.9767 0.9767 (  1989 PWs)   bands (ev):

   -46.2611 -18.1762 -18.1761 -18.1760 -10.7140   2.3829   2.3925   2.3941
     8.2603  13.5210  13.5434  13.5469  15.8232  15.8331  17.9876  21.3018

          k = 1.0000-1.0000 1.0000 (  1989 PWs)   bands (ev):

   -46.2611 -18.1760 -18.1760 -18.1760 -10.7158   2.3950   2.3950   2.3950
     8.2452  13.5383  13.5383  13.5383  15.8340  15.8340  17.9562  21.3058

     Writing output data file ./tmp/NaCl.save/

     init_run     :      1.25s CPU      1.27s WALL (       1 calls)
     electrons    :     90.24s CPU     90.74s WALL (       1 calls)

     Called by init_run:
     wfcinit      :      0.00s CPU      0.00s WALL (       1 calls)
     potinit      :      0.34s CPU      0.34s WALL (       1 calls)
     hinit0       :      0.82s CPU      0.82s WALL (       1 calls)

     Called by electrons:
     c_bands      :     90.24s CPU     90.74s WALL (       1 calls)
     v_of_rho     :      0.03s CPU      0.03s WALL (       1 calls)
     newd         :      0.05s CPU      0.06s WALL (       1 calls)
     PAW_pot      :      0.30s CPU      0.30s WALL (       1 calls)

     Called by c_bands:
     init_us_2    :      0.07s CPU      0.08s WALL (      91 calls)
     cegterg      :     87.29s CPU     87.75s WALL (     265 calls)

     Called by *egterg:
     cdiaghg      :      1.63s CPU      1.64s WALL (    4582 calls)
     h_psi        :     53.86s CPU     54.22s WALL (    4847 calls)
     s_psi        :      4.29s CPU      4.31s WALL (    4847 calls)
     g_psi        :      1.07s CPU      1.08s WALL (    4491 calls)

     Called by h_psi:
     h_psi:calbec :      4.12s CPU      4.15s WALL (    4847 calls)
     vloc_psi     :     45.20s CPU     45.52s WALL (    4847 calls)
     add_vuspsi   :      4.35s CPU      4.36s WALL (    4847 calls)

     General routines
     calbec       :      4.10s CPU      4.13s WALL (    4847 calls)
     fft          :      0.02s CPU      0.02s WALL (      13 calls)
     ffts         :      0.00s CPU      0.00s WALL (       1 calls)
     fftw         :     40.35s CPU     40.65s WALL (   79298 calls)
     interpolate  :      0.00s CPU      0.00s WALL (       1 calls)
     davcio       :      0.03s CPU      0.04s WALL (     182 calls)

     Parallel routines

     PWSCF        :   1m31.90s CPU   1m32.48s WALL


   This run was terminated on:  14:49: 9  12Nov2022            

=------------------------------------------------------------------------------=
   JOB DONE.
=------------------------------------------------------------------------------=
