
     Program PWSCF v.6.7MaX starts on 12Nov2022 at 14:44:32 

     This program is part of the open-source Quantum ESPRESSO suite
     for quantum simulation of materials; please cite
         "P. Giannozzi et al., J. Phys.:Condens. Matter 21 395502 (2009);
         "P. Giannozzi et al., J. Phys.:Condens. Matter 29 465901 (2017);
          URL http://www.quantum-espresso.org", 
     in publications or presentations arising from this work. More details at
     http://www.quantum-espresso.org/quote

     Parallel version (MPI), running on     1 processors

     MPI processes distributed on     1 nodes
     Waiting for input...
     Reading input from standard input
     Message from routine read_cards :
     DEPRECATED: no units specified in ATOMIC_POSITIONS card
     Message from routine read_cards :
     ATOMIC_POSITIONS: units set to alat

     Current dimensions of program PWSCF are:
     Max number of different atomic species (ntypx) = 10
     Max number of k-points (npk) =  40000
     Max angular momentum in pseudopotentials (lmaxx) =  3
     file Na.pbe-spn-kjpaw_psl.1.0.0.UPF: wavefunction(s)  2P renormalized
     file Cl.pbe-n-kjpaw_psl.1.0.0.UPF: wavefunction(s)  3S 3P renormalized

     Subspace diagonalization in iterative solution of the eigenvalue problem:
     a serial algorithm will be used


     G-vector sticks info
     --------------------
     sticks:   dense  smooth     PW     G-vecs:    dense   smooth      PW
     Sum         847     847    253                16361    16145    2685



     bravais-lattice index     =            2
     lattice parameter (alat)  =      10.0685  a.u.
     unit-cell volume          =     255.1743 (a.u.)^3
     number of atoms/cell      =            2
     number of atomic types    =            2
     number of electrons       =        16.00
     number of Kohn-Sham states=            8
     kinetic-energy cutoff     =      60.0000  Ry
     charge density cutoff     =     244.0000  Ry
     scf convergence threshold =      1.0E-08
     mixing beta               =       0.7000
     number of iterations used =            8  plain     mixing
     Exchange-correlation= SLA  PW   PBX  PBC
                           (   1   4   3   4   0   0   0)

     celldm(1)=  10.068520  celldm(2)=   0.000000  celldm(3)=   0.000000
     celldm(4)=   0.000000  celldm(5)=   0.000000  celldm(6)=   0.000000

     crystal axes: (cart. coord. in units of alat)
               a(1) = (  -0.500000   0.000000   0.500000 )  
               a(2) = (   0.000000   0.500000   0.500000 )  
               a(3) = (  -0.500000   0.500000   0.000000 )  

     reciprocal axes: (cart. coord. in units 2 pi/alat)
               b(1) = ( -1.000000 -1.000000  1.000000 )  
               b(2) = (  1.000000  1.000000  1.000000 )  
               b(3) = ( -1.000000  1.000000 -1.000000 )  


     PseudoPot. # 1 for Na read from file:
     ../../pseudopotentials/Na.pbe-spn-kjpaw_psl.1.0.0.UPF
     MD5 check sum: 2d3bf706d6c1b56787a12f8ec1fa0108
     Pseudo is Projector augmented-wave + core cor, Zval =  9.0
     Generated using &quot;atomic&quot; code by A. Dal Corso  v.6.3
     Shape of augmentation charge: PSQ
     Using radial grid of 1121 points,  4 beta functions with: 
                l(1) =   0
                l(2) =   0
                l(3) =   1
                l(4) =   1
     Q(r) pseudized with 0 coefficients 


     PseudoPot. # 2 for Cl read from file:
     ../../pseudopotentials/Cl.pbe-n-kjpaw_psl.1.0.0.UPF
     MD5 check sum: 742572be94a3d2fc30b29275f2c5bbd2
     Pseudo is Projector augmented-wave + core cor, Zval =  7.0
     Generated using &quot;atomic&quot; code by A. Dal Corso  v.6.3
     Shape of augmentation charge: PSQ
     Using radial grid of 1157 points,  6 beta functions with: 
                l(1) =   0
                l(2) =   0
                l(3) =   1
                l(4) =   1
                l(5) =   2
                l(6) =   2
     Q(r) pseudized with 0 coefficients 


     atomic species   valence    mass     pseudopotential
        Na             9.00    22.98977     Na( 1.00)
        Cl             7.00    35.45320     Cl( 1.00)

     48 Sym. Ops., with inversion, found



   Cartesian axes

     site n.     atom                  positions (alat units)
         1           Na  tau(   1) = (   0.0000000   0.0000000   0.0000000  )
         2           Cl  tau(   2) = (   0.5000000   0.0000000   0.0000000  )

     number of k points=    20
                       cart. coord. in units 2pi/alat
        k(    1) = (   0.0000000   0.0000000   0.0000000), wk =   0.0058309
        k(    2) = (  -0.1428571   0.1428571  -0.1428571), wk =   0.0466472
        k(    3) = (  -0.2857143   0.2857143  -0.2857143), wk =   0.0466472
        k(    4) = (  -0.4285714   0.4285714  -0.4285714), wk =   0.0466472
        k(    5) = (   0.0000000   0.2857143   0.0000000), wk =   0.0349854
        k(    6) = (  -0.1428571   0.4285714  -0.1428571), wk =   0.1399417
        k(    7) = (  -0.2857143   0.5714286  -0.2857143), wk =   0.1399417
        k(    8) = (   0.5714286  -0.2857143   0.5714286), wk =   0.1399417
        k(    9) = (   0.4285714  -0.1428571   0.4285714), wk =   0.1399417
        k(   10) = (   0.2857143  -0.0000000   0.2857143), wk =   0.0699708
        k(   11) = (   0.0000000   0.5714286   0.0000000), wk =   0.0349854
        k(   12) = (  -0.1428571   0.7142857  -0.1428571), wk =   0.1399417
        k(   13) = (   0.7142857  -0.1428571   0.7142857), wk =   0.1399417
        k(   14) = (   0.5714286   0.0000000   0.5714286), wk =   0.0699708
        k(   15) = (   0.0000000   0.8571429   0.0000000), wk =   0.0349854
        k(   16) = (   0.8571429  -0.0000000   0.8571429), wk =   0.0699708
        k(   17) = (  -0.2857143   0.5714286   0.0000000), wk =   0.1399417
        k(   18) = (   0.5714286  -0.2857143   0.8571429), wk =   0.2798834
        k(   19) = (   0.7142857  -0.1428571   1.0000000), wk =   0.1399417
        k(   20) = (   0.5714286   0.0000000   0.8571429), wk =   0.1399417

     Dense  grid:    16361 G-vectors     FFT dimensions: (  36,  36,  36)

     Smooth grid:    16145 G-vectors     FFT dimensions: (  36,  36,  36)

     Estimated max dynamical RAM per process >      65.63 MB

     Check: negative core charge=   -0.000007

     Initial potential from superposition of free atoms

     starting charge   15.99370, renormalised to   16.00000
     Starting wfcs are    9 randomized atomic wfcs
     Checking if some PAW data can be deallocated... 

     total cpu time spent up to now is        1.9 secs

     Self-consistent Calculation

     iteration #  1     ecut=    60.00 Ry     beta= 0.70
     Davidson diagonalization with overlap
     ethr =  1.00E-02,  avg # of iterations =  1.0

     Threshold (ethr) on eigenvalues was too large:
     Diagonalizing with lowered threshold

     Davidson diagonalization with overlap
     ethr =  3.71E-04,  avg # of iterations =  3.1

     total cpu time spent up to now is        4.7 secs

     total energy              =    -188.81574778 Ry
     estimated scf accuracy    <       0.04682559 Ry

     iteration #  2     ecut=    60.00 Ry     beta= 0.70
     Davidson diagonalization with overlap
     ethr =  2.93E-04,  avg # of iterations =  2.1

     total cpu time spent up to now is        6.2 secs

     total energy              =    -188.83031799 Ry
     estimated scf accuracy    <       0.00797836 Ry

     iteration #  3     ecut=    60.00 Ry     beta= 0.70
     Davidson diagonalization with overlap
     ethr =  4.99E-05,  avg # of iterations =  2.0

     total cpu time spent up to now is        7.8 secs

     total energy              =    -188.83174553 Ry
     estimated scf accuracy    <       0.00031069 Ry

     iteration #  4     ecut=    60.00 Ry     beta= 0.70
     Davidson diagonalization with overlap
     ethr =  1.94E-06,  avg # of iterations =  3.5

     total cpu time spent up to now is        9.6 secs

     total energy              =    -188.83201984 Ry
     estimated scf accuracy    <       0.00018855 Ry

     iteration #  5     ecut=    60.00 Ry     beta= 0.70
     Davidson diagonalization with overlap
     ethr =  1.18E-06,  avg # of iterations =  2.0

     total cpu time spent up to now is       10.8 secs

     total energy              =    -188.83202872 Ry
     estimated scf accuracy    <       0.00002107 Ry

     iteration #  6     ecut=    60.00 Ry     beta= 0.70
     Davidson diagonalization with overlap
     ethr =  1.32E-07,  avg # of iterations =  4.1

     total cpu time spent up to now is       12.3 secs

     total energy              =    -188.83204245 Ry
     estimated scf accuracy    <       0.00000718 Ry

     iteration #  7     ecut=    60.00 Ry     beta= 0.70
     Davidson diagonalization with overlap
     ethr =  4.49E-08,  avg # of iterations =  2.1

     total cpu time spent up to now is       13.5 secs

     total energy              =    -188.83204203 Ry
     estimated scf accuracy    <       0.00000229 Ry

     iteration #  8     ecut=    60.00 Ry     beta= 0.70
     Davidson diagonalization with overlap
     ethr =  1.43E-08,  avg # of iterations =  2.2

     total cpu time spent up to now is       14.8 secs

     total energy              =    -188.83204253 Ry
     estimated scf accuracy    <       0.00000007 Ry

     iteration #  9     ecut=    60.00 Ry     beta= 0.70
     Davidson diagonalization with overlap
     ethr =  4.32E-10,  avg # of iterations =  5.8

     total cpu time spent up to now is       16.7 secs

     total energy              =    -188.83204263 Ry
     estimated scf accuracy    <       0.00000003 Ry

     iteration # 10     ecut=    60.00 Ry     beta= 0.70
     Davidson diagonalization with overlap
     ethr =  2.18E-10,  avg # of iterations =  1.2

     total cpu time spent up to now is       17.8 secs

     total energy              =    -188.83204262 Ry
     estimated scf accuracy    <       0.00000002 Ry

     iteration # 11     ecut=    60.00 Ry     beta= 0.70
     Davidson diagonalization with overlap
     ethr =  1.41E-10,  avg # of iterations =  2.1

     total cpu time spent up to now is       19.2 secs

     End of self-consistent calculation

          k = 0.0000 0.0000 0.0000 (  1989 PWs)   bands (ev):

   -46.2607 -18.1757 -18.1757 -18.1757 -10.7158   2.3950   2.3950   2.3950

          k =-0.1429 0.1429-0.1429 (  1995 PWs)   bands (ev):

   -46.2604 -18.1882 -18.1764 -18.1764 -10.6187   1.7951   2.3194   2.3194

          k =-0.2857 0.2857-0.2857 (  2012 PWs)   bands (ev):

   -46.2596 -18.2159 -18.1783 -18.1783 -10.3898   0.7202   2.1579   2.1579

          k =-0.4286 0.4286-0.4286 (  2012 PWs)   bands (ev):

   -46.2589 -18.2375 -18.1797 -18.1797 -10.1937  -0.0040   2.0357   2.0357

          k = 0.0000 0.2857 0.0000 (  2009 PWs)   bands (ev):

   -46.2603 -18.1874 -18.1790 -18.1790 -10.5904   1.7617   2.2273   2.2273

          k =-0.1429 0.4286-0.1429 (  1999 PWs)   bands (ev):

   -46.2596 -18.2065 -18.1815 -18.1804 -10.4146   0.9928   2.0474   2.0611

          k =-0.2857 0.5714-0.2857 (  1988 PWs)   bands (ev):

   -46.2588 -18.2273 -18.1832 -18.1823 -10.2135   0.2699   1.8060   1.9471

          k = 0.5714-0.2857 0.5714 (  2002 PWs)   bands (ev):

   -46.2586 -18.2340 -18.1864 -18.1809 -10.1461   0.0636   1.6644   1.9615

          k = 0.4286-0.1429 0.4286 (  2004 PWs)   bands (ev):

   -46.2591 -18.2221 -18.1866 -18.1782 -10.2706   0.4769   1.7332   2.0957

          k = 0.2857-0.0000 0.2857 (  2005 PWs)   bands (ev):

   -46.2599 -18.2015 -18.1824 -18.1763 -10.4813   1.2294   2.0222   2.2576

          k = 0.0000 0.5714 0.0000 (  2008 PWs)   bands (ev):

   -46.2592 -18.2071 -18.1858 -18.1858 -10.3272   0.8026   1.8895   1.8895

          k =-0.1429 0.7143-0.1429 (  2015 PWs)   bands (ev):

   -46.2586 -18.2163 -18.1910 -18.1879 -10.1892   0.4597   1.5737   1.7737

          k = 0.7143-0.1429 0.7143 (  1999 PWs)   bands (ev):

   -46.2582 -18.2191 -18.1994 -18.1860 -10.1054   0.4290   1.0887   1.7899

          k = 0.5714 0.0000 0.5714 (  1999 PWs)   bands (ev):

   -46.2585 -18.2203 -18.1991 -18.1817 -10.1429   0.4903   1.0917   1.9287

          k = 0.0000 0.8571 0.0000 (  2012 PWs)   bands (ev):

   -46.2583 -18.2166 -18.1915 -18.1915 -10.1386   0.2978   1.6493   1.6493

          k = 0.8571-0.0000 0.8571 (  2010 PWs)   bands (ev):

   -46.2581 -18.2150 -18.1982 -18.1908 -10.1013   0.3449   1.3314   1.6560

          k =-0.2857 0.5714 0.0000 (  2012 PWs)   bands (ev):

   -46.2590 -18.2158 -18.1900 -18.1819 -10.2601   0.6155   1.6151   1.9521

          k = 0.5714-0.2857 0.8571 (  2008 PWs)   bands (ev):

   -46.2584 -18.2227 -18.1947 -18.1851 -10.1312   0.3709   1.2896   1.7952

          k = 0.7143-0.1429 1.0000 (  2014 PWs)   bands (ev):

   -46.2582 -18.2148 -18.1962 -18.1928 -10.1109   0.4438   1.3298   1.5513

          k = 0.5714 0.0000 0.8571 (  1985 PWs)   bands (ev):

   -46.2581 -18.2086 -18.2063 -18.1910 -10.0851   0.7374   0.8187   1.5689

     highest occupied level (ev):     2.3950

!    total energy              =    -188.83204263 Ry

     total all-electron energy =     -1248.119058 Ry
     estimated scf accuracy    <          3.5E-10 Ry

     The total energy is the sum of the following terms:
     one-electron contribution =     -74.43734200 Ry
     hartree contribution      =      44.79364760 Ry
     xc contribution           =     -25.74900397 Ry
     ewald contribution        =     -72.83477743 Ry
     one-center paw contrib.   =     -60.60456682 Ry

     convergence has been achieved in  11 iterations

     Writing output data file ./tmp/NaCl.save/

     init_run     :      1.63s CPU      1.67s WALL (       1 calls)
     electrons    :     16.92s CPU     17.26s WALL (       1 calls)

     Called by init_run:
     wfcinit      :      0.40s CPU      0.41s WALL (       1 calls)
     potinit      :      0.32s CPU      0.35s WALL (       1 calls)
     hinit0       :      0.83s CPU      0.83s WALL (       1 calls)

     Called by electrons:
     c_bands      :     11.26s CPU     11.31s WALL (      12 calls)
     sum_band     :      2.24s CPU      2.40s WALL (      12 calls)
     v_of_rho     :      0.32s CPU      0.33s WALL (      12 calls)
     newd         :      0.44s CPU      0.59s WALL (      12 calls)
     PAW_pot      :      2.93s CPU      2.95s WALL (      12 calls)
     mix_rho      :      0.05s CPU      0.05s WALL (      12 calls)

     Called by c_bands:
     init_us_2    :      0.40s CPU      0.40s WALL (     500 calls)
     cegterg      :     10.30s CPU     10.34s WALL (     240 calls)

     Called by *egterg:
     cdiaghg      :      0.08s CPU      0.08s WALL (     849 calls)
     h_psi        :      8.15s CPU      8.17s WALL (     889 calls)
     s_psi        :      0.66s CPU      0.66s WALL (     889 calls)
     g_psi        :      0.12s CPU      0.12s WALL (     629 calls)

     Called by h_psi:
     h_psi:calbec :      0.64s CPU      0.64s WALL (     889 calls)
     vloc_psi     :      6.82s CPU      6.84s WALL (     889 calls)
     add_vuspsi   :      0.66s CPU      0.67s WALL (     889 calls)

     General routines
     calbec       :      0.84s CPU      0.85s WALL (    1129 calls)
     fft          :      0.15s CPU      0.15s WALL (     155 calls)
     ffts         :      0.02s CPU      0.02s WALL (      24 calls)
     fftw         :      7.07s CPU      7.10s WALL (   13284 calls)
     interpolate  :      0.03s CPU      0.03s WALL (      12 calls)

     Parallel routines

     PWSCF        :     18.80s CPU     19.19s WALL


   This run was terminated on:  14:44:51  12Nov2022            

=------------------------------------------------------------------------------=
   JOB DONE.
=------------------------------------------------------------------------------=
