
     Program BANDS v.6.7MaX starts on 12Nov2022 at 14:52: 1 

     This program is part of the open-source Quantum ESPRESSO suite
     for quantum simulation of materials; please cite
         "P. Giannozzi et al., J. Phys.:Condens. Matter 21 395502 (2009);
         "P. Giannozzi et al., J. Phys.:Condens. Matter 29 465901 (2017);
          URL http://www.quantum-espresso.org", 
     in publications or presentations arising from this work. More details at
     http://www.quantum-espresso.org/quote

     Parallel version (MPI), running on     1 processors

     MPI processes distributed on     1 nodes

     Reading xml data from directory:

     ./tmp/NaCl.save/
     file Na.pbe-spn-kjpaw_psl.1.0.0.UPF: wavefunction(s)  2P renormalized
     file Cl.pbe-n-kjpaw_psl.1.0.0.UPF: wavefunction(s)  3S 3P renormalized

     IMPORTANT: XC functional enforced from input :
     Exchange-correlation= PBE
                           (   1   4   3   4   0   0   0)
     Any further DFT definition will be discarded
     Please, verify this is what you really want


     G-vector sticks info
     --------------------
     sticks:   dense  smooth     PW     G-vecs:    dense   smooth      PW
     Sum         847     847    271                16361    16145    2975


     Check: negative core charge=   -0.000007
     Reading collected, re-writing distributed wavefunctions
     high-symmetry point:  0.5000 0.5000 0.5000   x coordinate   0.0000
     high-symmetry point:  0.0000 0.0000 0.0000   x coordinate   0.8660
     high-symmetry point:  1.0000 0.0000 0.0000   x coordinate   1.8660
     high-symmetry point:  1.0500-0.3000 0.3000   x coordinate   2.2932
     high-symmetry point:  1.0000-1.0000 1.0000   x coordinate   3.2844

     Plottable bands (eV) written to file NaCl_bands.dat.gnu
     Bands written to file NaCl_bands.dat

 **************************************************************************

                    xk=(   0.50000,   0.50000,   0.50000  )

     point group D_3d (-3m) 
     there are  6 classes
     the character table:

       E     2C3   3C2'  i     2S6   3s_d 
A_1g   1.00  1.00  1.00  1.00  1.00  1.00
A_2g   1.00  1.00 -1.00  1.00  1.00 -1.00
E_g    2.00 -1.00  0.00  2.00 -1.00  0.00
A_1u   1.00  1.00  1.00 -1.00 -1.00 -1.00
A_2u   1.00  1.00 -1.00 -1.00 -1.00  1.00
E_u    2.00 -1.00  0.00 -2.00  1.00  0.00

     the symmetry operations in each class and the name of the first element:

     E        1
                                                                 
     2C3      5    6
                                                                 
     3C2'     2    4    3
                                                                 
     i        7
                                                                 
     2S6     11   12
                                                                 
     3s_d     8   10    9
                                                                 

     Band symmetry, D_3d (-3m)  point group:

     e(  1 -  1) =    -46.25909  eV     1   --> A_1g L_1       
     e(  2 -  2) =    -18.24090  eV     1   --> A_2u L_2'      
     e(  3 -  4) =    -18.18009  eV     2   --> E_u  L_3'      
     e(  5 -  5) =    -10.16398  eV     1   --> A_2u L_2'      
     e(  6 -  6) =     -0.10346  eV     1   --> A_1g L_1       
     e(  7 -  8) =      2.01845  eV     2   --> E_g  L_3       
     e(  9 -  9) =      9.94078  eV     1   --> A_2u L_2'      
     e( 10 - 11) =     13.67084  eV     2   --> E_u  L_3'      
     e( 12 - 12) =     14.50159  eV     1   --> A_1g L_1       
     e( 13 - 13) =     18.61072  eV     1   --> A_1g L_1       
     e( 14 - 15) =     18.84858  eV     2   --> E_u  L_3'      
     e( 16 - 16) =     20.95179  eV     1   -->   ?

 **************************************************************************

 **************************************************************************

                    xk=(   0.47500,   0.47500,   0.47500  )

     point group C_3v (3m)  
     there are  3 classes
     the character table:

       E     2C3   3s_v 
A_1    1.00  1.00  1.00
A_2    1.00  1.00 -1.00
E      2.00 -1.00  0.00

     the symmetry operations in each class and the name of the first element:

     E        1
                                                                 
     2C3      2    3
                                                                 
     3s_v     4    5    6
                                                                 

     Band symmetry, C_3v (3m)   point group:

     e(  1 -  1) =    -46.25912  eV     1   --> A_1  L_1       
     e(  2 -  2) =    -18.24065  eV     1   --> A_1  L_1       
     e(  3 -  4) =    -18.18012  eV     2   --> E    L_3       
     e(  5 -  5) =    -10.16770  eV     1   --> A_1  L_1       
     e(  6 -  6) =     -0.09118  eV     1   --> A_1  L_1       
     e(  7 -  8) =      2.02060  eV     2   --> E    L_3       
     e(  9 -  9) =      9.94300  eV     1   --> A_1  L_1       
     e( 10 - 11) =     13.67583  eV     2   --> E    L_3       
     e( 12 - 12) =     14.46382  eV     1   --> A_1  L_1       
     e( 13 - 13) =     18.61891  eV     1   --> A_1  L_1       
     e( 14 - 15) =     18.74028  eV     2   --> E    L_3       
     e( 16 - 16) =     21.07928  eV     1   -->   ?

 **************************************************************************

 **************************************************************************

                    xk=(   0.45000,   0.45000,   0.45000  )

     Band symmetry, C_3v (3m)   point group:

     e(  1 -  1) =    -46.25915  eV     1   --> A_1  L_1       
     e(  2 -  2) =    -18.23927  eV     1   --> A_1  L_1       
     e(  3 -  4) =    -18.18011  eV     2   --> E    L_3       
     e(  5 -  5) =    -10.17869  eV     1   --> A_1  L_1       
     e(  6 -  6) =     -0.05445  eV     1   --> A_1  L_1       
     e(  7 -  8) =      2.02701  eV     2   --> E    L_3       
     e(  9 -  9) =      9.94998  eV     1   --> A_1  L_1       
     e( 10 - 11) =     13.69082  eV     2   --> E    L_3       
     e( 12 - 12) =     14.35487  eV     1   --> A_1  L_1       
     e( 13 - 14) =     18.47212  eV     2   --> E    L_3       
     e( 15 - 15) =     18.64452  eV     1   --> A_1  L_1       
     e( 16 - 16) =     21.40502  eV     1   -->   ?

 **************************************************************************

 **************************************************************************

                    xk=(   0.42500,   0.42500,   0.42500  )

     Band symmetry, C_3v (3m)   point group:

     e(  1 -  1) =    -46.25923  eV     1   --> A_1  L_1       
     e(  2 -  2) =    -18.23760  eV     1   --> A_1  L_1       
     e(  3 -  4) =    -18.18001  eV     2   --> E    L_3       
     e(  5 -  5) =    -10.19666  eV     1   --> A_1  L_1       
     e(  6 -  6) =      0.00611  eV     1   --> A_1  L_1       
     e(  7 -  8) =      2.03754  eV     2   --> E    L_3       
     e(  9 -  9) =      9.95949  eV     1   --> A_1  L_1       
     e( 10 - 11) =     13.71546  eV     2   --> E    L_3       
     e( 12 - 12) =     14.18650  eV     1   --> A_1  L_1       
     e( 13 - 14) =     18.13051  eV     2   --> E    L_3       
     e( 15 - 15) =     18.68888  eV     1   --> A_1  L_1       
     e( 16 - 16) =     21.70443  eV     1   --> A_1  L_1       

 **************************************************************************

 **************************************************************************

                    xk=(   0.40000,   0.40000,   0.40000  )

     Band symmetry, C_3v (3m)   point group:

     e(  1 -  1) =    -46.25926  eV     1   --> A_1  L_1       
     e(  2 -  2) =    -18.23466  eV     1   --> A_1  L_1       
     e(  3 -  4) =    -18.17971  eV     2   --> E    L_3       
     e(  5 -  5) =    -10.22099  eV     1   --> A_1  L_1       
     e(  6 -  6) =      0.08964  eV     1   --> A_1  L_1       
     e(  7 -  8) =      2.05201  eV     2   --> E    L_3       
     e(  9 -  9) =      9.97030  eV     1   --> A_1  L_1       
     e( 10 - 11) =     13.74910  eV     2   --> E    L_3       
     e( 12 - 12) =     13.97511  eV     1   --> A_1  L_1       
     e( 13 - 14) =     17.76583  eV     2   --> E    L_3       
     e( 15 - 15) =     18.75366  eV     1   --> A_1  L_1       
     e( 16 - 16) =     22.03658  eV     1   --> A_1  L_1       

 **************************************************************************

 **************************************************************************

                    xk=(   0.37500,   0.37500,   0.37500  )

     Band symmetry, C_3v (3m)   point group:

     e(  1 -  1) =    -46.25943  eV     1   --> A_1  L_1       
     e(  2 -  2) =    -18.23195  eV     1   --> A_1  L_1       
     e(  3 -  4) =    -18.17963  eV     2   --> E    L_3       
     e(  5 -  5) =    -10.25100  eV     1   --> A_1  L_1       
     e(  6 -  6) =      0.19480  eV     1   --> A_1  L_1       
     e(  7 -  8) =      2.07010  eV     2   --> E    L_3       
     e(  9 -  9) =      9.97710  eV     1   --> A_1  L_1       
     e( 10 - 10) =     13.73868  eV     1   --> A_1  L_1       
     e( 11 - 12) =     13.78952  eV     2   --> E    L_3       
     e( 13 - 14) =     17.40231  eV     2   --> E    L_3       
     e( 15 - 15) =     18.83801  eV     1   --> A_1  L_1       
     e( 16 - 16) =     22.42410  eV     1   --> A_1  L_1       

 **************************************************************************

 **************************************************************************

                    xk=(   0.35000,   0.35000,   0.35000  )

     Band symmetry, C_3v (3m)   point group:

     e(  1 -  1) =    -46.25951  eV     1   --> A_1  L_1       
     e(  2 -  2) =    -18.22787  eV     1   --> A_1  L_1       
     e(  3 -  4) =    -18.17929  eV     2   --> E    L_3       
     e(  5 -  5) =    -10.28575  eV     1   --> A_1  L_1       
     e(  6 -  6) =      0.32007  eV     1   --> A_1  L_1       
     e(  7 -  8) =      2.09145  eV     2   --> E    L_3       
     e(  9 -  9) =      9.97638  eV     1   --> A_1  L_1       
     e( 10 - 10) =     13.49575  eV     1   --> A_1  L_1       
     e( 11 - 12) =     13.83557  eV     2   --> E    L_3       
     e( 13 - 14) =     17.05329  eV     2   --> E    L_3       
     e( 15 - 15) =     18.94138  eV     1   --> A_1  L_1       
     e( 16 - 16) =     22.84462  eV     1   --> A_1  L_1       

 **************************************************************************

 **************************************************************************

                    xk=(   0.32500,   0.32500,   0.32500  )

     Band symmetry, C_3v (3m)   point group:

     e(  1 -  1) =    -46.25965  eV     1   --> A_1  L_1       
     e(  2 -  2) =    -18.22360  eV     1   --> A_1  L_1       
     e(  3 -  4) =    -18.17903  eV     2   --> E    L_3       
     e(  5 -  5) =    -10.32425  eV     1   --> A_1  L_1       
     e(  6 -  6) =      0.46351  eV     1   --> A_1  L_1       
     e(  7 -  8) =      2.11560  eV     2   --> E    L_3       
     e(  9 -  9) =      9.96020  eV     1   --> A_1  L_1       
     e( 10 - 10) =     13.26416  eV     1   --> A_1  L_1       
     e( 11 - 12) =     13.88371  eV     2   --> E    L_3       
     e( 13 - 14) =     16.72714  eV     2   --> E    L_3       
     e( 15 - 15) =     19.05998  eV     1   --> A_1  L_1       
     e( 16 - 16) =     23.24208  eV     1   --> A_1  L_1       

 **************************************************************************

 **************************************************************************

                    xk=(   0.30000,   0.30000,   0.30000  )

     Band symmetry, C_3v (3m)   point group:

     e(  1 -  1) =    -46.25979  eV     1   --> A_1  L_1       
     e(  2 -  2) =    -18.21896  eV     1   --> A_1  L_1       
     e(  3 -  4) =    -18.17875  eV     2   --> E    L_3       
     e(  5 -  5) =    -10.36544  eV     1   --> A_1  L_1       
     e(  6 -  6) =      0.62291  eV     1   --> A_1  L_1       
     e(  7 -  8) =      2.14205  eV     2   --> E    L_3       
     e(  9 -  9) =      9.92039  eV     1   --> A_1  L_1       
     e( 10 - 10) =     13.06120  eV     1   --> A_1  L_1       
     e( 11 - 12) =     13.93001  eV     2   --> E    L_3       
     e( 13 - 14) =     16.43120  eV     2   --> E    L_3       
     e( 15 - 15) =     19.19008  eV     1   --> A_1  L_1       
     e( 16 - 16) =     23.37690  eV     1   --> A_1  L_1       

 **************************************************************************

 **************************************************************************

                    xk=(   0.27500,   0.27500,   0.27500  )

     Band symmetry, C_3v (3m)   point group:

     e(  1 -  1) =    -46.25993  eV     1   --> A_1  L_1       
     e(  2 -  2) =    -18.21381  eV     1   --> A_1  L_1       
     e(  3 -  4) =    -18.17846  eV     2   --> E    L_3       
     e(  5 -  5) =    -10.40823  eV     1   --> A_1  L_1       
     e(  6 -  6) =      0.79572  eV     1   --> A_1  L_1       
     e(  7 -  8) =      2.17019  eV     2   --> E    L_3       
     e(  9 -  9) =      9.84873  eV     1   --> A_1  L_1       
     e( 10 - 10) =     12.90221  eV     1   --> A_1  L_1       
     e( 11 - 12) =     13.96888  eV     2   --> E    L_3       
     e( 13 - 14) =     16.17281  eV     2   --> E    L_3       
     e( 15 - 15) =     19.32615  eV     1   --> A_1  L_1       
     e( 16 - 16) =     22.98989  eV     1   --> A_1  L_1       

 **************************************************************************

 **************************************************************************

                    xk=(   0.25000,   0.25000,   0.25000  )

     Band symmetry, C_3v (3m)   point group:

     e(  1 -  1) =    -46.26008  eV     1   --> A_1  L_1       
     e(  2 -  2) =    -18.20869  eV     1   --> A_1  L_1       
     e(  3 -  4) =    -18.17813  eV     2   --> E    L_3       
     e(  5 -  5) =    -10.45152  eV     1   --> A_1  L_1       
     e(  6 -  6) =      0.97905  eV     1   --> A_1  L_1       
     e(  7 -  8) =      2.19939  eV     2   --> E    L_3       
     e(  9 -  9) =      9.73984  eV     1   --> A_1  L_1       
     e( 10 - 10) =     12.79815  eV     1   --> A_1  L_1       
     e( 11 - 12) =     13.99321  eV     2   --> E    L_3       
     e( 13 - 14) =     15.95947  eV     2   --> E    L_3       
     e( 15 - 15) =     19.45656  eV     1   --> A_1  L_1       
     e( 16 - 16) =     22.44617  eV     1   --> A_1  L_1       

 **************************************************************************

 **************************************************************************

                    xk=(   0.22500,   0.22500,   0.22500  )

     Band symmetry, C_3v (3m)   point group:

     e(  1 -  1) =    -46.26025  eV     1   --> A_1  L_1       
     e(  2 -  2) =    -18.20366  eV     1   --> A_1  L_1       
     e(  3 -  4) =    -18.17787  eV     2   --> E    L_3       
     e(  5 -  5) =    -10.49425  eV     1   --> A_1  L_1       
     e(  6 -  6) =      1.16958  eV     1   --> A_1  L_1       
     e(  7 -  8) =      2.22894  eV     2   --> E    L_3       
     e(  9 -  9) =      9.59340  eV     1   --> A_1  L_1       
     e( 10 - 10) =     12.75357  eV     1   --> A_1  L_1       
     e( 11 - 12) =     13.99562  eV     2   --> E    L_3       
     e( 13 - 14) =     15.79838  eV     2   --> E    L_3       
     e( 15 - 15) =     19.56383  eV     1   --> A_1  L_1       
     e( 16 - 16) =     21.91783  eV     1   --> A_1  L_1       

 **************************************************************************

 **************************************************************************

                    xk=(   0.20000,   0.20000,   0.20000  )

     Band symmetry, C_3v (3m)   point group:

     e(  1 -  1) =    -46.26045  eV     1   --> A_1  L_1       
     e(  2 -  2) =    -18.19899  eV     1   --> A_1  L_1       
     e(  3 -  4) =    -18.17769  eV     2   --> E    L_3       
     e(  5 -  5) =    -10.53540  eV     1   --> A_1  L_1       
     e(  6 -  6) =      1.36350  eV     1   --> A_1  L_1       
     e(  7 -  8) =      2.25810  eV     2   --> E    L_3       
     e(  9 -  9) =      9.41571  eV     1   --> A_1  L_1       
     e( 10 - 10) =     12.76589  eV     1   --> A_1  L_1       
     e( 11 - 12) =     13.97126  eV     2   --> E    L_3       
     e( 13 - 14) =     15.69373  eV     2   --> E    L_3       
     e( 15 - 15) =     19.61293  eV     1   --> A_1  L_1       
     e( 16 - 16) =     21.46743  eV     1   --> A_1  L_1       

 **************************************************************************

 **************************************************************************

                    xk=(   0.17500,   0.17500,   0.17500  )

     Band symmetry, C_3v (3m)   point group:

     e(  1 -  1) =    -46.26057  eV     1   --> A_1  L_1       
     e(  2 -  2) =    -18.19410  eV     1   --> A_1  L_1       
     e(  3 -  4) =    -18.17735  eV     2   --> E    L_3       
     e(  5 -  5) =    -10.57404  eV     1   --> A_1  L_1       
     e(  6 -  6) =      1.55649  eV     1   --> A_1  L_1       
     e(  7 -  8) =      2.28615  eV     2   --> E    L_3       
     e(  9 -  9) =      9.21766  eV     1   --> A_1  L_1       
     e( 10 - 10) =     12.82714  eV     1   --> A_1  L_1       
     e( 11 - 12) =     13.92096  eV     2   --> E    L_3       
     e( 13 - 14) =     15.64344  eV     2   --> E    L_3       
     e( 15 - 15) =     19.55066  eV     1   --> A_1  L_1       
     e( 16 - 16) =     21.15833  eV     1   --> A_1  L_1       

 **************************************************************************

 **************************************************************************

                    xk=(   0.15000,   0.15000,   0.15000  )

     Band symmetry, C_3v (3m)   point group:

     e(  1 -  1) =    -46.26067  eV     1   --> A_1  L_1       
     e(  2 -  2) =    -18.18974  eV     1   --> A_1  L_1       
     e(  3 -  4) =    -18.17684  eV     2   --> E    L_3       
     e(  5 -  5) =    -10.60931  eV     1   --> A_1  L_1       
     e(  6 -  6) =      1.74354  eV     1   --> A_1  L_1       
     e(  7 -  8) =      2.31238  eV     2   --> E    L_3       
     e(  9 -  9) =      9.01155  eV     1   --> A_1  L_1       
     e( 10 - 10) =     12.92622  eV     1   --> A_1  L_1       
     e( 11 - 12) =     13.85173  eV     2   --> E    L_3       
     e( 13 - 14) =     15.63800  eV     2   --> E    L_3       
     e( 15 - 15) =     19.34328  eV     1   --> A_1  L_1       
     e( 16 - 16) =     21.02602  eV     1   --> A_1  L_1       

 **************************************************************************

 **************************************************************************

                    xk=(   0.12500,   0.12500,   0.12500  )

     Band symmetry, C_3v (3m)   point group:

     e(  1 -  1) =    -46.26082  eV     1   --> A_1  L_1       
     e(  2 -  2) =    -18.18587  eV     1   --> A_1  L_1       
     e(  3 -  4) =    -18.17678  eV     2   --> E    L_3       
     e(  5 -  5) =    -10.64047  eV     1   --> A_1  L_1       
     e(  6 -  6) =      1.91895  eV     1   --> A_1  L_1       
     e(  7 -  8) =      2.33597  eV     2   --> E    L_3       
     e(  9 -  9) =      8.81000  eV     1   --> A_1  L_1       
     e( 10 - 10) =     13.05072  eV     1   --> A_1  L_1       
     e( 11 - 12) =     13.77393  eV     2   --> E    L_3       
     e( 13 - 14) =     15.66356  eV     2   --> E    L_3       
     e( 15 - 15) =     19.03738  eV     1   --> A_1  L_1       
     e( 16 - 16) =     21.02705  eV     1   --> A_1  L_1       

 **************************************************************************

 **************************************************************************

                    xk=(   0.10000,   0.10000,   0.10000  )

     Band symmetry, C_3v (3m)   point group:

     e(  1 -  1) =    -46.26093  eV     1   --> A_1  L_1       
     e(  2 -  2) =    -18.18251  eV     1   --> A_1  L_1       
     e(  3 -  4) =    -18.17658  eV     2   --> E    L_3       
     e(  5 -  5) =    -10.66686  eV     1   --> A_1  L_1       
     e(  6 -  6) =      2.07635  eV     1   --> A_1  L_1       
     e(  7 -  8) =      2.35632  eV     2   --> E    L_3       
     e(  9 -  9) =      8.62503  eV     1   --> A_1  L_1       
     e( 10 - 10) =     13.18707  eV     1   --> A_1  L_1       
     e( 11 - 12) =     13.69791  eV     2   --> E    L_3       
     e( 13 - 14) =     15.70635  eV     2   --> E    L_3       
     e( 15 - 15) =     18.70759  eV     1   --> A_1  L_1       
     e( 16 - 16) =     21.09058  eV     1   --> A_1  L_1       

 **************************************************************************

 **************************************************************************

                    xk=(   0.07500,   0.07500,   0.07500  )

     Band symmetry, C_3v (3m)   point group:

     e(  1 -  1) =    -46.26106  eV     1   --> A_1  L_1       
     e(  2 -  2) =    -18.17997  eV     1   --> A_1  L_1       
     e(  3 -  4) =    -18.17660  eV     2   --> E    L_3       
     e(  5 -  5) =    -10.68795  eV     1   --> A_1  L_1       
     e(  6 -  6) =      2.20892  eV     1   --> A_1  L_1       
     e(  7 -  8) =      2.37281  eV     2   --> E    L_3       
     e(  9 -  9) =      8.46740  eV     1   --> A_1  L_1       
     e( 10 - 10) =     13.32026  eV     1   --> A_1  L_1       
     e( 11 - 12) =     13.63165  eV     2   --> E    L_3       
     e( 13 - 14) =     15.75377  eV     2   --> E    L_3       
     e( 15 - 15) =     18.40581  eV     1   --> A_1  L_1       
     e( 16 - 16) =     21.16952  eV     1   --> A_1  L_1       

 **************************************************************************

 **************************************************************************

                    xk=(   0.05000,   0.05000,   0.05000  )

     Band symmetry, C_3v (3m)   point group:

     e(  1 -  1) =    -46.26111  eV     1   --> A_1  L_1       
     e(  2 -  2) =    -18.17821  eV     1   --> A_1  L_1       
     e(  3 -  4) =    -18.17632  eV     2   --> E    L_3       
     e(  5 -  5) =    -10.70332  eV     1   --> A_1  L_1       
     e(  6 -  6) =      2.30989  eV     1   --> A_1  L_1       
     e(  7 -  8) =      2.38502  eV     2   --> E    L_3       
     e(  9 -  9) =      8.34683  eV     1   --> A_1  L_1       
     e( 10 - 10) =     13.43369  eV     1   --> A_1  L_1       
     e( 11 - 12) =     13.58085  eV     2   --> E    L_3       
     e( 13 - 14) =     15.79559  eV     2   --> E    L_3       
     e( 15 - 15) =     18.16528  eV     1   --> A_1  L_1       
     e( 16 - 16) =     21.23907  eV     1   --> A_1  L_1       

 **************************************************************************

 **************************************************************************

                    xk=(   0.02500,   0.02500,   0.02500  )

     Band symmetry, C_3v (3m)   point group:

     e(  1 -  1) =    -46.26110  eV     1   --> A_1  L_1       
     e(  2 -  2) =    -18.17685  eV     1   --> A_1  L_1       
     e(  3 -  4) =    -18.17607  eV     2   --> E    L_3       
     e(  5 -  5) =    -10.71266  eV     1   --> A_1  L_1       
     e(  6 -  6) =      2.37329  eV     1   --> A_1  L_1       
     e(  7 -  8) =      2.39251  eV     2   --> E    L_3       
     e(  9 -  9) =      8.27108  eV     1   --> A_1  L_1       
     e( 10 - 10) =     13.51080  eV     1   --> A_1  L_1       
     e( 11 - 12) =     13.54906  eV     2   --> E    L_3       
     e( 13 - 14) =     15.82398  eV     2   --> E    L_3       
     e( 15 - 15) =     18.00996  eV     1   --> A_1  L_1       
     e( 16 - 16) =     21.28707  eV     1   --> A_1  L_1       

 **************************************************************************

 **************************************************************************

                    xk=(   0.00000,   0.00000,   0.00000  )

     point group O_h (m-3m) 
     there are 10 classes
     the character table:

       E     8C3   3C2   6C4   6C2'  i     8S6   3s_h  6S4   6s_d 
A_1g   1.00  1.00  1.00  1.00  1.00  1.00  1.00  1.00  1.00  1.00
A_2g   1.00  1.00  1.00 -1.00 -1.00  1.00  1.00  1.00 -1.00 -1.00
E_g    2.00 -1.00  2.00  0.00  0.00  2.00 -1.00  2.00  0.00  0.00
T_1g   3.00  0.00 -1.00  1.00 -1.00  3.00  0.00 -1.00  1.00 -1.00
T_2g   3.00  0.00 -1.00 -1.00  1.00  3.00  0.00 -1.00 -1.00  1.00
A_1u   1.00  1.00  1.00  1.00  1.00 -1.00 -1.00 -1.00 -1.00 -1.00
A_2u   1.00  1.00  1.00 -1.00 -1.00 -1.00 -1.00 -1.00  1.00  1.00
E_u    2.00 -1.00  2.00  0.00  0.00 -2.00  1.00 -2.00  0.00  0.00
T_1u   3.00  0.00 -1.00  1.00 -1.00 -3.00  0.00  1.00 -1.00  1.00
T_2u   3.00  0.00 -1.00 -1.00  1.00 -3.00  0.00  1.00  1.00 -1.00

     the symmetry operations in each class and the name of the first element:

     E        1
                                                                 
     8C3     17   19   20   18   24   21   22   23
                                                                 
     3C2      2    4    3
                                                                 
     6C4      7    8   15   16   12   11
                                                                 
     6C2'     5    6   14   13   10    9
                                                                 
     i       25
                                                                 
     8S6     41   43   44   42   48   45   46   47
                                                                 
     3s_h    26   28   27
                                                                 
     6S4     31   32   39   40   36   35
                                                                 
     6s_d    29   30   38   37   34   33
                                                                 

     Band symmetry, O_h (m-3m)  point group:

     e(  1 -  1) =    -46.26106  eV     1   --> A_1g G_1   G_1+
     e(  2 -  4) =    -18.17601  eV     3   --> T_1u G_15  G_4-
     e(  5 -  5) =    -10.71580  eV     1   --> A_1g G_1   G_1+
     e(  6 -  8) =      2.39502  eV     3   --> T_1u G_15  G_4-
     e(  9 -  9) =      8.24525  eV     1   --> A_1g G_1   G_1+
     e( 10 - 12) =     13.53826  eV     3   --> T_2g G_25' G_5+
     e( 13 - 14) =     15.83402  eV     2   --> E_g  G_12  G_3+
     e( 15 - 15) =     17.95618  eV     1   --> A_2u G_2'  G_2-
     e( 16 - 16) =     21.30577  eV     1   -->   ?

 **************************************************************************

 **************************************************************************

                    xk=(   0.03333,   0.00000,   0.00000  )

     point group C_4v (4mm) 
     there are  5 classes
     the character table:

       E     2C4   C2    2s_v  2s_d 
A_1    1.00  1.00  1.00  1.00  1.00
A_2    1.00  1.00  1.00 -1.00 -1.00
B_1    1.00 -1.00  1.00  1.00 -1.00
B_2    1.00 -1.00  1.00 -1.00  1.00
E      2.00  0.00 -2.00  0.00  0.00

     the symmetry operations in each class and the name of the first element:

     E        1
                                                                 
     2C4      3    4
                                                                 
     C2       2
                                                                 
     2s_v     5    6
                                                                 
     2s_d     7    8
                                                                 

     Band symmetry, C_4v (4mm)  point group:

     e(  1 -  1) =    -46.26105  eV     1   --> A_1  G_1 D_1   
     e(  2 -  2) =    -18.17620  eV     1   --> A_1  G_1 D_1   
     e(  3 -  4) =    -18.17606  eV     2   --> E    G_5 D_5   
     e(  5 -  5) =    -10.71394  eV     1   --> A_1  G_1 D_1   
     e(  6 -  6) =      2.38425  eV     1   --> A_1  G_1 D_1   
     e(  7 -  8) =      2.39250  eV     2   --> E    G_5 D_5   
     e(  9 -  9) =      8.26062  eV     1   --> A_1  G_1 D_1   
     e( 10 - 10) =     13.51709  eV     1   --> B_2  G_4 D_2'  
     e( 11 - 12) =     13.54709  eV     2   --> E    G_5 D_5   
     e( 13 - 13) =     15.81786  eV     1   --> A_1  G_1 D_1   
     e( 14 - 14) =     15.83817  eV     1   --> B_1  G_3 D_2   
     e( 15 - 15) =     17.98820  eV     1   --> B_2  G_4 D_2'  
     e( 16 - 16) =     21.31303  eV     1   -->   ?

 **************************************************************************

 **************************************************************************

                    xk=(   0.06667,   0.00000,   0.00000  )

     Band symmetry, C_4v (4mm)  point group:

     e(  1 -  1) =    -46.26112  eV     1   --> A_1  G_1 D_1   
     e(  2 -  2) =    -18.17727  eV     1   --> A_1  G_1 D_1   
     e(  3 -  4) =    -18.17642  eV     2   --> E    G_5 D_5   
     e(  5 -  5) =    -10.70839  eV     1   --> A_1  G_1 D_1   
     e(  6 -  6) =      2.35226  eV     1   --> A_1  G_1 D_1   
     e(  7 -  8) =      2.38491  eV     2   --> E    G_5 D_5   
     e(  9 -  9) =      8.30621  eV     1   --> A_1  G_1 D_1   
     e( 10 - 10) =     13.45544  eV     1   --> B_2  G_4 D_2'  
     e( 11 - 12) =     13.57349  eV     2   --> E    G_5 D_5   
     e( 13 - 13) =     15.76996  eV     1   --> A_1  G_1 D_1   
     e( 14 - 14) =     15.85059  eV     1   --> B_1  G_3 D_2   
     e( 15 - 15) =     18.08240  eV     1   --> B_2  G_4 D_2'  
     e( 16 - 16) =     21.33367  eV     1   -->   ?

 **************************************************************************

 **************************************************************************

                    xk=(   0.10000,   0.00000,   0.00000  )

     Band symmetry, C_4v (4mm)  point group:

     e(  1 -  1) =    -46.26113  eV     1   --> A_1  G_1 D_1   
     e(  2 -  2) =    -18.17810  eV     1   --> A_1  G_1 D_1   
     e(  3 -  4) =    -18.17691  eV     2   --> E    G_5 D_5   
     e(  5 -  5) =    -10.69923  eV     1   --> A_1  G_1 D_1   
     e(  6 -  6) =      2.30063  eV     1   --> A_1  G_1 D_1   
     e(  7 -  8) =      2.37243  eV     2   --> E    G_5 D_5   
     e(  9 -  9) =      8.38069  eV     1   --> A_1  G_1 D_1   
     e( 10 - 10) =     13.35829  eV     1   --> B_2  G_4 D_2'  
     e( 11 - 12) =     13.61730  eV     2   --> E    G_5 D_5   
     e( 13 - 13) =     15.69199  eV     1   --> A_1  G_1 D_1   
     e( 14 - 14) =     15.87124  eV     1   --> B_1  G_3 D_2   
     e( 15 - 15) =     18.23378  eV     1   --> B_2  G_4 D_2'  
     e( 16 - 16) =     21.36861  eV     1   -->   ?

 **************************************************************************

 **************************************************************************

                    xk=(   0.13333,   0.00000,   0.00000  )

     Band symmetry, C_4v (4mm)  point group:

     e(  1 -  1) =    -46.26105  eV     1   --> A_1  G_1 D_1   
     e(  2 -  2) =    -18.17908  eV     1   --> A_1  G_1 D_1   
     e(  3 -  4) =    -18.17715  eV     2   --> E    G_5 D_5   
     e(  5 -  5) =    -10.68658  eV     1   --> A_1  G_1 D_1   
     e(  6 -  6) =      2.23129  eV     1   --> A_1  G_1 D_1   
     e(  7 -  8) =      2.35535  eV     2   --> E    G_5 D_5   
     e(  9 -  9) =      8.48188  eV     1   --> A_1  G_1 D_1   
     e( 10 - 10) =     13.23234  eV     1   --> B_2  G_4 D_2'  
     e( 11 - 12) =     13.67824  eV     2   --> E    G_5 D_5   
     e( 13 - 13) =     15.58680  eV     1   --> A_1  G_1 D_1   
     e( 14 - 14) =     15.90008  eV     1   --> B_1  G_3 D_2   
     e( 15 - 15) =     18.43557  eV     1   --> B_2  G_4 D_2'  
     e( 16 - 16) =     21.41966  eV     1   -->   ?

 **************************************************************************

 **************************************************************************

                    xk=(   0.16667,   0.00000,   0.00000  )

     Band symmetry, C_4v (4mm)  point group:

     e(  1 -  1) =    -46.26102  eV     1   --> A_1  G_1 D_1   
     e(  2 -  2) =    -18.18061  eV     1   --> A_1  G_1 D_1   
     e(  3 -  4) =    -18.17769  eV     2   --> E    G_5 D_5   
     e(  5 -  5) =    -10.67062  eV     1   --> A_1  G_1 D_1   
     e(  6 -  6) =      2.14671  eV     1   --> A_1  G_1 D_1   
     e(  7 -  8) =      2.33386  eV     2   --> E    G_5 D_5   
     e(  9 -  9) =      8.60692  eV     1   --> A_1  G_1 D_1   
     e( 10 - 10) =     13.08464  eV     1   --> B_2  G_4 D_2'  
     e( 11 - 12) =     13.75581  eV     2   --> E    G_5 D_5   
     e( 13 - 13) =     15.45761  eV     1   --> A_1  G_1 D_1   
     e( 14 - 14) =     15.93695  eV     1   --> B_1  G_3 D_2   
     e( 15 - 15) =     18.68063  eV     1   --> B_2  G_4 D_2'  
     e( 16 - 16) =     21.48415  eV     1   -->   ?

 **************************************************************************

 **************************************************************************

                    xk=(   0.20000,   0.00000,   0.00000  )

     Band symmetry, C_4v (4mm)  point group:

     e(  1 -  1) =    -46.26091  eV     1   --> A_1  G_1 D_1   
     e(  2 -  2) =    -18.18230  eV     1   --> A_1  G_1 D_1   
     e(  3 -  4) =    -18.17803  eV     2   --> E    G_5 D_5   
     e(  5 -  5) =    -10.65157  eV     1   --> A_1  G_1 D_1   
     e(  6 -  6) =      2.04963  eV     1   --> A_1  G_1 D_1   
     e(  7 -  8) =      2.30839  eV     2   --> E    G_5 D_5   
     e(  9 -  9) =      8.75283  eV     1   --> A_1  G_1 D_1   
     e( 10 - 10) =     12.92168  eV     1   --> B_2  G_4 D_2'  
     e( 11 - 12) =     13.84958  eV     2   --> E    G_5 D_5   
     e( 13 - 13) =     15.30848  eV     1   --> A_1  G_1 D_1   
     e( 14 - 14) =     15.98177  eV     1   --> B_1  G_3 D_2   
     e( 15 - 15) =     18.96239  eV     1   --> B_2  G_4 D_2'  
     e( 16 - 16) =     21.56439  eV     1   -->   ?

 **************************************************************************

 **************************************************************************

                    xk=(   0.23333,   0.00000,   0.00000  )

     Band symmetry, C_4v (4mm)  point group:

     e(  1 -  1) =    -46.26083  eV     1   --> A_1  G_1 D_1   
     e(  2 -  2) =    -18.18431  eV     1   --> A_1  G_1 D_1   
     e(  3 -  4) =    -18.17855  eV     2   --> E    G_5 D_5   
     e(  5 -  5) =    -10.62969  eV     1   --> A_1  G_1 D_1   
     e(  6 -  6) =      1.94283  eV     1   --> A_1  G_1 D_1   
     e(  7 -  8) =      2.27930  eV     2   --> E    G_5 D_5   
     e(  9 -  9) =      8.91620  eV     1   --> A_1  G_1 D_1   
     e( 10 - 10) =     12.74887  eV     1   --> B_2  G_4 D_2'  
     e( 11 - 12) =     13.95884  eV     2   --> E    G_5 D_5   
     e( 13 - 13) =     15.14340  eV     1   --> A_1  G_1 D_1   
     e( 14 - 14) =     16.03431  eV     1   --> B_1  G_3 D_2   
     e( 15 - 15) =     19.27525  eV     1   --> B_2  G_4 D_2'  
     e( 16 - 16) =     21.65833  eV     1   -->   ?

 **************************************************************************

 **************************************************************************

                    xk=(   0.26667,   0.00000,   0.00000  )

     Band symmetry, C_4v (4mm)  point group:

     e(  1 -  1) =    -46.26070  eV     1   --> A_1  G_1 D_1   
     e(  2 -  2) =    -18.18643  eV     1   --> A_1  G_1 D_1   
     e(  3 -  4) =    -18.17902  eV     2   --> E    G_5 D_5   
     e(  5 -  5) =    -10.60528  eV     1   --> A_1  G_1 D_1   
     e(  6 -  6) =      1.82901  eV     1   --> A_1  G_1 D_1   
     e(  7 -  8) =      2.24705  eV     2   --> E    G_5 D_5   
     e(  9 -  9) =      9.09378  eV     1   --> A_1  G_1 D_1   
     e( 10 - 10) =     12.57065  eV     1   --> B_2  G_4 D_2'  
     e( 11 - 12) =     14.08301  eV     2   --> E    G_5 D_5   
     e( 13 - 13) =     14.96656  eV     1   --> A_1  G_1 D_1   
     e( 14 - 14) =     16.09436  eV     1   --> B_1  G_3 D_2   
     e( 15 - 15) =     19.61463  eV     1   --> B_2  G_4 D_2'  
     e( 16 - 16) =     21.76693  eV     1   -->   ?

 **************************************************************************

 **************************************************************************

                    xk=(   0.30000,   0.00000,   0.00000  )

     Band symmetry, C_4v (4mm)  point group:

     e(  1 -  1) =    -46.26059  eV     1   --> A_1  G_1 D_1   
     e(  2 -  2) =    -18.18875  eV     1   --> A_1  G_1 D_1   
     e(  3 -  4) =    -18.17967  eV     2   --> E    G_5 D_5   
     e(  5 -  5) =    -10.57867  eV     1   --> A_1  G_1 D_1   
     e(  6 -  6) =      1.71063  eV     1   --> A_1  G_1 D_1   
     e(  7 -  8) =      2.21210  eV     2   --> E    G_5 D_5   
     e(  9 -  9) =      9.28191  eV     1   --> A_1  G_1 D_1   
     e( 10 - 10) =     12.39044  eV     1   --> B_2  G_4 D_2'  
     e( 11 - 12) =     14.22123  eV     2   --> E    G_5 D_5   
     e( 13 - 13) =     14.78266  eV     1   --> A_1  G_1 D_1   
     e( 14 - 14) =     16.16165  eV     1   --> B_1  G_3 D_2   
     e( 15 - 15) =     19.97686  eV     1   --> B_2  G_4 D_2'  
     e( 16 - 16) =     21.88851  eV     1   -->   ?

 **************************************************************************

 **************************************************************************

                    xk=(   0.33333,   0.00000,   0.00000  )

     Band symmetry, C_4v (4mm)  point group:

     e(  1 -  1) =    -46.26044  eV     1   --> A_1  G_1 D_1   
     e(  2 -  2) =    -18.19087  eV     1   --> A_1  G_1 D_1   
     e(  3 -  4) =    -18.18036  eV     2   --> E    G_5 D_5   
     e(  5 -  5) =    -10.55021  eV     1   --> A_1  G_1 D_1   
     e(  6 -  6) =      1.58995  eV     1   --> A_1  G_1 D_1   
     e(  7 -  8) =      2.17496  eV     2   --> E    G_5 D_5   
     e(  9 -  9) =      9.47720  eV     1   --> A_1  G_1 D_1   
     e( 10 - 10) =     12.21092  eV     1   --> B_2  G_4 D_2'  
     e( 11 - 12) =     14.37278  eV     2   --> E    G_5 D_5   
     e( 13 - 13) =     14.59671  eV     1   --> A_1  G_1 D_1   
     e( 14 - 14) =     16.23587  eV     1   --> B_1  G_3 D_2   
     e( 15 - 15) =     20.35896  eV     1   --> B_2  G_4 D_2'  
     e( 16 - 16) =     22.02314  eV     1   -->   ?

 **************************************************************************

 **************************************************************************

                    xk=(   0.36667,   0.00000,   0.00000  )

     Band symmetry, C_4v (4mm)  point group:

     e(  1 -  1) =    -46.26031  eV     1   --> A_1  G_1 D_1   
     e(  2 -  2) =    -18.19332  eV     1   --> A_1  G_1 D_1   
     e(  3 -  4) =    -18.18111  eV     2   --> E    G_5 D_5   
     e(  5 -  5) =    -10.52028  eV     1   --> A_1  G_1 D_1   
     e(  6 -  6) =      1.46896  eV     1   --> A_1  G_1 D_1   
     e(  7 -  8) =      2.13614  eV     2   --> E    G_5 D_5   
     e(  9 -  9) =      9.67561  eV     1   --> A_1  G_1 D_1   
     e( 10 - 10) =     12.03418  eV     1   --> B_2  G_4 D_2'  
     e( 11 - 11) =     14.41223  eV     1   --> A_1  G_1 D_1   
     e( 12 - 13) =     14.53685  eV     2   --> E    G_5 D_5   
     e( 14 - 14) =     16.31665  eV     1   --> B_1  G_3 D_2   
     e( 15 - 15) =     20.75850  eV     1   --> B_2  G_4 D_2'  
     e( 16 - 16) =     22.16929  eV     1   -->   ?

 **************************************************************************

 **************************************************************************

                    xk=(   0.40000,   0.00000,   0.00000  )

     Band symmetry, C_4v (4mm)  point group:

     e(  1 -  1) =    -46.26018  eV     1   --> A_1  G_1 D_1   
     e(  2 -  2) =    -18.19577  eV     1   --> A_1  G_1 D_1   
     e(  3 -  4) =    -18.18191  eV     2   --> E    G_5 D_5   
     e(  5 -  5) =    -10.48926  eV     1   --> A_1  G_1 D_1   
     e(  6 -  6) =      1.34936  eV     1   --> A_1  G_1 D_1   
     e(  7 -  8) =      2.09613  eV     2   --> E    G_5 D_5   
     e(  9 -  9) =      9.87306  eV     1   --> A_1  G_1 D_1   
     e( 10 - 10) =     11.86183  eV     1   --> B_2  G_4 D_2'  
     e( 11 - 11) =     14.23490  eV     1   --> A_1  G_1 D_1   
     e( 12 - 13) =     14.71264  eV     2   --> E    G_5 D_5   
     e( 14 - 14) =     16.40354  eV     1   --> B_1  G_3 D_2   
     e( 15 - 15) =     21.17345  eV     1   --> B_2  G_4 D_2'  
     e( 16 - 16) =     22.32501  eV     1   -->   ?

 **************************************************************************

 **************************************************************************

                    xk=(   0.43333,   0.00000,   0.00000  )

     Band symmetry, C_4v (4mm)  point group:

     e(  1 -  1) =    -46.26007  eV     1   --> A_1  G_1 D_1   
     e(  2 -  2) =    -18.19845  eV     1   --> A_1  G_1 D_1   
     e(  3 -  4) =    -18.18276  eV     2   --> E    G_5 D_5   
     e(  5 -  5) =    -10.45754  eV     1   --> A_1  G_1 D_1   
     e(  6 -  6) =      1.23261  eV     1   --> A_1  G_1 D_1   
     e(  7 -  8) =      2.05544  eV     2   --> E    G_5 D_5   
     e(  9 -  9) =     10.06481  eV     1   --> A_1  G_1 D_1   
     e( 10 - 10) =     11.69514  eV     1   --> B_2  G_4 D_2'  
     e( 11 - 11) =     14.06953  eV     1   --> A_1  G_1 D_1   
     e( 12 - 13) =     14.89933  eV     2   --> E    G_5 D_5   
     e( 14 - 14) =     16.49604  eV     1   --> B_1  G_3 D_2   
     e( 15 - 15) =     21.60199  eV     1   --> B_2  G_4 D_2'  
     e( 16 - 16) =     22.48640  eV     1   -->   ?

 **************************************************************************

 **************************************************************************

                    xk=(   0.46667,   0.00000,   0.00000  )

     Band symmetry, C_4v (4mm)  point group:

     e(  1 -  1) =    -46.25990  eV     1   --> A_1  G_1 D_1   
     e(  2 -  2) =    -18.20077  eV     1   --> A_1  G_1 D_1   
     e(  3 -  4) =    -18.18344  eV     2   --> E    G_5 D_5   
     e(  5 -  5) =    -10.42552  eV     1   --> A_1  G_1 D_1   
     e(  6 -  6) =      1.11997  eV     1   --> A_1  G_1 D_1   
     e(  7 -  8) =      2.01454  eV     2   --> E    G_5 D_5   
     e(  9 -  9) =     10.24536  eV     1   --> A_1  G_1 D_1   
     e( 10 - 10) =     11.53508  eV     1   --> B_2  G_4 D_2'  
     e( 11 - 11) =     13.92404  eV     1   --> A_1  G_1 D_1   
     e( 12 - 13) =     15.09630  eV     2   --> E    G_5 D_5   
     e( 14 - 14) =     16.59357  eV     1   --> B_1  G_3 D_2   
     e( 15 - 15) =     22.04247  eV     1   --> B_2  G_4 D_2'  
     e( 16 - 16) =     22.64758  eV     1   -->   ?

 **************************************************************************

 **************************************************************************

                    xk=(   0.50000,   0.00000,   0.00000  )

     Band symmetry, C_4v (4mm)  point group:

     e(  1 -  1) =    -46.25974  eV     1   --> A_1  G_1 D_1   
     e(  2 -  2) =    -18.20294  eV     1   --> A_1  G_1 D_1   
     e(  3 -  4) =    -18.18425  eV     2   --> E    G_5 D_5   
     e(  5 -  5) =    -10.39358  eV     1   --> A_1  G_1 D_1   
     e(  6 -  6) =      1.01241  eV     1   --> A_1  G_1 D_1   
     e(  7 -  8) =      1.97390  eV     2   --> E    G_5 D_5   
     e(  9 -  9) =     10.40841  eV     1   --> A_1  G_1 D_1   
     e( 10 - 10) =     11.38244  eV     1   --> B_2  G_4 D_2'  
     e( 11 - 11) =     13.80467  eV     1   --> A_1  G_1 D_1   
     e( 12 - 13) =     15.30252  eV     2   --> E    G_5 D_5   
     e( 14 - 14) =     16.69543  eV     1   --> B_1  G_3 D_2   
     e( 15 - 15) =     22.49324  eV     1   --> B_2  G_4 D_2'  
     e( 16 - 16) =     22.79401  eV     1   -->   ?

 **************************************************************************

 **************************************************************************

                    xk=(   0.53333,   0.00000,   0.00000  )

     Band symmetry, C_4v (4mm)  point group:

     e(  1 -  1) =    -46.25965  eV     1   --> A_1  G_1 D_1   
     e(  2 -  2) =    -18.20528  eV     1   --> A_1  G_1 D_1   
     e(  3 -  4) =    -18.18523  eV     2   --> E    G_5 D_5   
     e(  5 -  5) =    -10.36209  eV     1   --> A_1  G_1 D_1   
     e(  6 -  6) =      0.91075  eV     1   --> A_1  G_1 D_1   
     e(  7 -  8) =      1.93390  eV     2   --> E    G_5 D_5   
     e(  9 -  9) =     10.54713  eV     1   --> A_1  G_1 D_1   
     e( 10 - 10) =     11.23785  eV     1   --> B_2  G_4 D_2'  
     e( 11 - 11) =     13.71796  eV     1   --> A_1  G_1 D_1   
     e( 12 - 13) =     15.51729  eV     2   --> E    G_5 D_5   
     e( 14 - 14) =     16.80083  eV     1   --> B_1  G_3 D_2   
     e( 15 - 16) =     22.90069  eV     2   --> E    G_5 D_5   

 **************************************************************************

 **************************************************************************

                    xk=(   0.56667,   0.00000,   0.00000  )

     Band symmetry, C_4v (4mm)  point group:

     e(  1 -  1) =    -46.25951  eV     1   --> A_1  G_1 D_1   
     e(  2 -  2) =    -18.20722  eV     1   --> A_1  G_1 D_1   
     e(  3 -  4) =    -18.18608  eV     2   --> E    G_5 D_5   
     e(  5 -  5) =    -10.33140  eV     1   --> A_1  G_1 D_1   
     e(  6 -  6) =      0.81563  eV     1   --> A_1  G_1 D_1   
     e(  7 -  8) =      1.89500  eV     2   --> E    G_5 D_5   
     e(  9 -  9) =     10.65520  eV     1   --> A_1  G_1 D_1   
     e( 10 - 10) =     11.10181  eV     1   --> B_2  G_4 D_2'  
     e( 11 - 11) =     13.67200  eV     1   --> A_1  G_1 D_1   
     e( 12 - 13) =     15.74011  eV     2   --> E    G_5 D_5   
     e( 14 - 14) =     16.90890  eV     1   --> B_1  G_3 D_2   
     e( 15 - 16) =     22.92966  eV     2   --> E    G_5 D_5   

 **************************************************************************

 **************************************************************************

                    xk=(   0.60000,   0.00000,   0.00000  )

     Band symmetry, C_4v (4mm)  point group:

     e(  1 -  1) =    -46.25937  eV     1   --> A_1  G_1 D_1   
     e(  2 -  2) =    -18.20900  eV     1   --> A_1  G_1 D_1   
     e(  3 -  4) =    -18.18691  eV     2   --> E    G_5 D_5   
     e(  5 -  5) =    -10.30185  eV     1   --> A_1  G_1 D_1   
     e(  6 -  6) =      0.72750  eV     1   --> A_1  G_1 D_1   
     e(  7 -  8) =      1.85756  eV     2   --> E    G_5 D_5   
     e(  9 -  9) =     10.72814  eV     1   --> A_1  G_1 D_1   
     e( 10 - 10) =     10.97472  eV     1   --> B_2  G_4 D_2'  
     e( 11 - 11) =     13.67082  eV     1   --> A_1  G_1 D_1   
     e( 12 - 13) =     15.97029  eV     2   --> E    G_5 D_5   
     e( 14 - 14) =     17.01859  eV     1   --> B_1  G_3 D_2   
     e( 15 - 16) =     22.84631  eV     2   --> E    G_5 D_5   

 **************************************************************************

 **************************************************************************

                    xk=(   0.63333,   0.00000,   0.00000  )

     Band symmetry, C_4v (4mm)  point group:

     e(  1 -  1) =    -46.25921  eV     1   --> A_1  G_1 D_1   
     e(  2 -  2) =    -18.21044  eV     1   --> A_1  G_1 D_1   
     e(  3 -  4) =    -18.18763  eV     2   --> E    G_5 D_5   
     e(  5 -  5) =    -10.27371  eV     1   --> A_1  G_1 D_1   
     e(  6 -  6) =      0.64676  eV     1   --> A_1  G_1 D_1   
     e(  7 -  8) =      1.82193  eV     2   --> E    G_5 D_5   
     e(  9 -  9) =     10.76500  eV     1   --> A_1  G_1 D_1   
     e( 10 - 10) =     10.85692  eV     1   --> B_2  G_4 D_2'  
     e( 11 - 11) =     13.71544  eV     1   --> A_1  G_1 D_1   
     e( 12 - 13) =     16.20742  eV     2   --> E    G_5 D_5   
     e( 14 - 14) =     17.12875  eV     1   --> B_1  G_3 D_2   
     e( 15 - 16) =     22.65805  eV     2   --> E    G_5 D_5   

 **************************************************************************

 **************************************************************************

                    xk=(   0.66667,   0.00000,   0.00000  )

     Band symmetry, C_4v (4mm)  point group:

     e(  1 -  1) =    -46.25908  eV     1   --> A_1  G_1 D_1   
     e(  2 -  2) =    -18.21180  eV     1   --> A_1  G_1 D_1   
     e(  3 -  4) =    -18.18842  eV     2   --> E    G_5 D_5   
     e(  5 -  5) =    -10.24728  eV     1   --> A_1  G_1 D_1   
     e(  6 -  6) =      0.57347  eV     1   --> A_1  G_1 D_1   
     e(  7 -  8) =      1.78844  eV     2   --> E    G_5 D_5   
     e(  9 -  9) =     10.74867  eV     1   --> B_2  G_4 D_2'  
     e( 10 - 10) =     10.76879  eV     1   --> A_1  G_1 D_1   
     e( 11 - 11) =     13.80202  eV     1   --> A_1  G_1 D_1   
     e( 12 - 13) =     16.45058  eV     2   --> E    G_5 D_5   
     e( 14 - 14) =     17.23808  eV     1   --> B_1  G_3 D_2   
     e( 15 - 16) =     22.40172  eV     2   --> E    G_5 D_5   

 **************************************************************************

 **************************************************************************

                    xk=(   0.70000,   0.00000,   0.00000  )

     Band symmetry, C_4v (4mm)  point group:

     e(  1 -  1) =    -46.25895  eV     1   --> A_1  G_1 D_1   
     e(  2 -  2) =    -18.21295  eV     1   --> A_1  G_1 D_1   
     e(  3 -  4) =    -18.18910  eV     2   --> E    G_5 D_5   
     e(  5 -  5) =    -10.22278  eV     1   --> A_1  G_1 D_1   
     e(  6 -  6) =      0.50786  eV     1   --> A_1  G_1 D_1   
     e(  7 -  8) =      1.75730  eV     2   --> E    G_5 D_5   
     e(  9 -  9) =     10.65020  eV     1   --> B_2  G_4 D_2'  
     e( 10 - 10) =     10.74607  eV     1   --> A_1  G_1 D_1   
     e( 11 - 11) =     13.92309  eV     1   --> A_1  G_1 D_1   
     e( 12 - 13) =     16.69958  eV     2   --> E    G_5 D_5   
     e( 14 - 14) =     17.34504  eV     1   --> B_1  G_3 D_2   
     e( 15 - 16) =     22.10992  eV     2   --> E    G_5 D_5   

 **************************************************************************

 **************************************************************************

                    xk=(   0.73333,   0.00000,   0.00000  )

     Band symmetry, C_4v (4mm)  point group:

     e(  1 -  1) =    -46.25887  eV     1   --> A_1  G_1 D_1   
     e(  2 -  2) =    -18.21419  eV     1   --> A_1  G_1 D_1   
     e(  3 -  4) =    -18.18984  eV     2   --> E    G_5 D_5   
     e(  5 -  5) =    -10.20042  eV     1   --> A_1  G_1 D_1   
     e(  6 -  6) =      0.44967  eV     1   --> A_1  G_1 D_1   
     e(  7 -  8) =      1.72878  eV     2   --> E    G_5 D_5   
     e(  9 -  9) =     10.56170  eV     1   --> B_2  G_4 D_2'  
     e( 10 - 10) =     10.70451  eV     1   --> A_1  G_1 D_1   
     e( 11 - 11) =     14.06921  eV     1   --> A_1  G_1 D_1   
     e( 12 - 13) =     16.95362  eV     2   --> E    G_5 D_5   
     e( 14 - 14) =     17.44804  eV     1   --> B_1  G_3 D_2   
     e( 15 - 16) =     21.80087  eV     2   --> E    G_5 D_5   

 **************************************************************************

 **************************************************************************

                    xk=(   0.76667,   0.00000,   0.00000  )

     Band symmetry, C_4v (4mm)  point group:

     e(  1 -  1) =    -46.25878  eV     1   --> A_1  G_1 D_1   
     e(  2 -  2) =    -18.21509  eV     1   --> A_1  G_1 D_1   
     e(  3 -  4) =    -18.19046  eV     2   --> E    G_5 D_5   
     e(  5 -  5) =    -10.18036  eV     1   --> A_1  G_1 D_1   
     e(  6 -  6) =      0.39899  eV     1   --> A_1  G_1 D_1   
     e(  7 -  8) =      1.70313  eV     2   --> E    G_5 D_5   
     e(  9 -  9) =     10.48331  eV     1   --> B_2  G_4 D_2'  
     e( 10 - 10) =     10.65207  eV     1   --> A_1  G_1 D_1   
     e( 11 - 11) =     14.23098  eV     1   --> A_1  G_1 D_1   
     e( 12 - 13) =     17.21233  eV     2   --> E    G_5 D_5   
     e( 14 - 14) =     17.54534  eV     1   --> B_1  G_3 D_2   
     e( 15 - 16) =     21.48524  eV     2   --> E    G_5 D_5   

 **************************************************************************

 **************************************************************************

                    xk=(   0.80000,   0.00000,   0.00000  )

     Band symmetry, C_4v (4mm)  point group:

     e(  1 -  1) =    -46.25873  eV     1   --> A_1  G_1 D_1   
     e(  2 -  2) =    -18.21617  eV     1   --> A_1  G_1 D_1   
     e(  3 -  4) =    -18.19108  eV     2   --> E    G_5 D_5   
     e(  5 -  5) =    -10.16274  eV     1   --> A_1  G_1 D_1   
     e(  6 -  6) =      0.35559  eV     1   --> A_1  G_1 D_1   
     e(  7 -  8) =      1.68050  eV     2   --> E    G_5 D_5   
     e(  9 -  9) =     10.41515  eV     1   --> B_2  G_4 D_2'  
     e( 10 - 10) =     10.59523  eV     1   --> A_1  G_1 D_1   
     e( 11 - 11) =     14.39782  eV     1   --> A_1  G_1 D_1   
     e( 12 - 13) =     17.47482  eV     2   --> E    G_5 D_5   
     e( 14 - 14) =     17.63507  eV     1   --> B_1  G_3 D_2   
     e( 15 - 16) =     21.16854  eV     2   --> E    G_5 D_5   

 **************************************************************************

 **************************************************************************

                    xk=(   0.83333,   0.00000,   0.00000  )

     Band symmetry, C_4v (4mm)  point group:

     e(  1 -  1) =    -46.25864  eV     1   --> A_1  G_1 D_1   
     e(  2 -  2) =    -18.21657  eV     1   --> A_1  G_1 D_1   
     e(  3 -  4) =    -18.19157  eV     2   --> E    G_5 D_5   
     e(  5 -  5) =    -10.14768  eV     1   --> A_1  G_1 D_1   
     e(  6 -  6) =      0.31940  eV     1   --> A_1  G_1 D_1   
     e(  7 -  8) =      1.66112  eV     2   --> E    G_5 D_5   
     e(  9 -  9) =     10.35732  eV     1   --> B_2  G_4 D_2'  
     e( 10 - 10) =     10.53954  eV     1   --> A_1  G_1 D_1   
     e( 11 - 11) =     14.56170  eV     1   --> A_1  G_1 D_1   
     e( 12 - 12) =     17.71532  eV     1   --> B_1  G_3 D_2   
     e( 13 - 14) =     17.74033  eV     2   --> E    G_5 D_5   
     e( 15 - 16) =     20.85465  eV     2   --> E    G_5 D_5   

 **************************************************************************

 **************************************************************************

                    xk=(   0.86667,   0.00000,   0.00000  )

     Band symmetry, C_4v (4mm)  point group:

     e(  1 -  1) =    -46.25856  eV     1   --> A_1  G_1 D_1   
     e(  2 -  2) =    -18.21691  eV     1   --> A_1  G_1 D_1   
     e(  3 -  4) =    -18.19195  eV     2   --> E    G_5 D_5   
     e(  5 -  5) =    -10.13525  eV     1   --> A_1  G_1 D_1   
     e(  6 -  6) =      0.29019  eV     1   --> A_1  G_1 D_1   
     e(  7 -  8) =      1.64507  eV     2   --> E    G_5 D_5   
     e(  9 -  9) =     10.30991  eV     1   --> B_2  G_4 D_2'  
     e( 10 - 10) =     10.48911  eV     1   --> A_1  G_1 D_1   
     e( 11 - 11) =     14.71251  eV     1   --> A_1  G_1 D_1   
     e( 12 - 12) =     17.78421  eV     1   --> B_1  G_3 D_2   
     e( 13 - 14) =     18.00719  eV     2   --> E    G_5 D_5   
     e( 15 - 16) =     20.54693  eV     2   --> E    G_5 D_5   

 **************************************************************************

 **************************************************************************

                    xk=(   0.90000,   0.00000,   0.00000  )

     Band symmetry, C_4v (4mm)  point group:

     e(  1 -  1) =    -46.25853  eV     1   --> A_1  G_1 D_1   
     e(  2 -  2) =    -18.21729  eV     1   --> A_1  G_1 D_1   
     e(  3 -  4) =    -18.19233  eV     2   --> E    G_5 D_5   
     e(  5 -  5) =    -10.12553  eV     1   --> A_1  G_1 D_1   
     e(  6 -  6) =      0.26765  eV     1   --> A_1  G_1 D_1   
     e(  7 -  8) =      1.63247  eV     2   --> E    G_5 D_5   
     e(  9 -  9) =     10.27297  eV     1   --> B_2  G_4 D_2'  
     e( 10 - 10) =     10.44698  eV     1   --> A_1  G_1 D_1   
     e( 11 - 11) =     14.84158  eV     1   --> A_1  G_1 D_1   
     e( 12 - 12) =     17.83996  eV     1   --> B_1  G_3 D_2   
     e( 13 - 14) =     18.27148  eV     2   --> E    G_5 D_5   
     e( 15 - 16) =     20.24983  eV     2   --> E    G_5 D_5   

 **************************************************************************

 **************************************************************************

                    xk=(   0.93333,   0.00000,   0.00000  )

     Band symmetry, C_4v (4mm)  point group:

     e(  1 -  1) =    -46.25852  eV     1   --> A_1  G_1 D_1   
     e(  2 -  2) =    -18.21765  eV     1   --> A_1  G_1 D_1   
     e(  3 -  4) =    -18.19267  eV     2   --> E    G_5 D_5   
     e(  5 -  5) =    -10.11856  eV     1   --> A_1  G_1 D_1   
     e(  6 -  6) =      0.25164  eV     1   --> A_1  G_1 D_1   
     e(  7 -  8) =      1.62340  eV     2   --> E    G_5 D_5   
     e(  9 -  9) =     10.24655  eV     1   --> B_2  G_4 D_2'  
     e( 10 - 10) =     10.41537  eV     1   --> A_1  G_1 D_1   
     e( 11 - 11) =     14.94085  eV     1   --> A_1  G_1 D_1   
     e( 12 - 12) =     17.88101  eV     1   --> B_1  G_3 D_2   
     e( 13 - 14) =     18.52443  eV     2   --> E    G_5 D_5   
     e( 15 - 16) =     19.97287  eV     2   --> E    G_5 D_5   

 **************************************************************************

 **************************************************************************

                    xk=(   0.96667,   0.00000,   0.00000  )

     Band symmetry, C_4v (4mm)  point group:

     e(  1 -  1) =    -46.25853  eV     1   --> A_1  G_1 D_1   
     e(  2 -  2) =    -18.21803  eV     1   --> A_1  G_1 D_1   
     e(  3 -  4) =    -18.19286  eV     2   --> E    G_5 D_5   
     e(  5 -  5) =    -10.11436  eV     1   --> A_1  G_1 D_1   
     e(  6 -  6) =      0.24200  eV     1   --> A_1  G_1 D_1   
     e(  7 -  8) =      1.61794  eV     2   --> E    G_5 D_5   
     e(  9 -  9) =     10.23068  eV     1   --> B_2  G_4 D_2'  
     e( 10 - 10) =     10.39578  eV     1   --> A_1  G_1 D_1   
     e( 11 - 11) =     15.00343  eV     1   --> A_1  G_1 D_1   
     e( 12 - 12) =     17.90616  eV     1   --> B_1  G_3 D_2   
     e( 13 - 14) =     18.73960  eV     2   --> E    G_5 D_5   
     e( 15 - 16) =     19.74321  eV     2   --> E    G_5 D_5   

 **************************************************************************

 **************************************************************************

                    xk=(   1.00000,   0.00000,   0.00000  )

     point group D_4h(4/mmm)
     there are 10 classes
     the character table:

       E     2C4   C2    2C2'  2C2'' i     2S4   s_h   2s_v  2s_d 
A_1g   1.00  1.00  1.00  1.00  1.00  1.00  1.00  1.00  1.00  1.00
A_2g   1.00  1.00  1.00 -1.00 -1.00  1.00  1.00  1.00 -1.00 -1.00
B_1g   1.00 -1.00  1.00  1.00 -1.00  1.00 -1.00  1.00  1.00 -1.00
B_2g   1.00 -1.00  1.00 -1.00  1.00  1.00 -1.00  1.00 -1.00  1.00
E_g    2.00  0.00 -2.00  0.00  0.00  2.00  0.00 -2.00  0.00  0.00
A_1u   1.00  1.00  1.00  1.00  1.00 -1.00 -1.00 -1.00 -1.00 -1.00
A_2u   1.00  1.00  1.00 -1.00 -1.00 -1.00 -1.00 -1.00  1.00  1.00
B_1u   1.00 -1.00  1.00  1.00 -1.00 -1.00  1.00 -1.00 -1.00  1.00
B_2u   1.00 -1.00  1.00 -1.00  1.00 -1.00  1.00 -1.00  1.00 -1.00
E_u    2.00  0.00 -2.00  0.00  0.00 -2.00  0.00  2.00  0.00  0.00

     the symmetry operations in each class and the name of the first element:

     E        1
                                                                 
     2C4      7    8
                                                                 
     C2       4
                                                                 
     2C2'     2    3
                                                                 
     2C2''    5    6
                                                                 
     i        9
                                                                 
     2S4     15   16
                                                                 
     s_h     12
                                                                 
     2s_v    10   11
                                                                 
     2s_d    13   14
                                                                 

     Band symmetry, D_4h(4/mmm) point group:

     e(  1 -  1) =    -46.25859  eV     1   --> A_1g X_1  M_1  
     e(  2 -  2) =    -18.21852  eV     1   --> A_2u X_4' M_4' 
     e(  3 -  4) =    -18.19301  eV     2   --> E_u  X_5' M_5' 
     e(  5 -  5) =    -10.11296  eV     1   --> A_1g X_1  M_1  
     e(  6 -  6) =      0.23875  eV     1   --> A_2u X_4' M_4' 
     e(  7 -  8) =      1.61608  eV     2   --> E_u  X_5' M_5' 
     e(  9 -  9) =     10.22539  eV     1   --> B_2g X_3  M_3  
     e( 10 - 10) =     10.38913  eV     1   --> A_1g X_1  M_1  
     e( 11 - 11) =     15.02430  eV     1   --> A_2u X_4' M_4' 
     e( 12 - 12) =     17.91461  eV     1   --> B_1g X_2  M_2  
     e( 13 - 14) =     18.83762  eV     2   --> E_u  X_5' M_5' 
     e( 15 - 16) =     19.64011  eV     2   --> E_g  X_5  M_5  

 **************************************************************************

 **************************************************************************

                    xk=(   1.00500,  -0.03000,   0.03000  )

     point group C_s (m)    
     there are  2 classes
     the character table:

       E     s    
A'     1.00  1.00
A''    1.00 -1.00

     the symmetry operations in each class and the name of the first element:

     E        1
                                                                 
     s        2
                                                                 

     Band symmetry, C_s (m)     point group:

     e(  1 -  1) =    -46.25853  eV     1   --> A'             
     e(  2 -  2) =    -18.21805  eV     1   --> A'             
     e(  3 -  3) =    -18.19319  eV     1   --> A'             
     e(  4 -  4) =    -18.19283  eV     1   --> A''            
     e(  5 -  5) =    -10.11237  eV     1   --> A'             
     e(  6 -  6) =      0.24362  eV     1   --> A'             
     e(  7 -  7) =      1.60199  eV     1   --> A'             
     e(  8 -  8) =      1.61794  eV     1   --> A''            
     e(  9 -  9) =     10.24468  eV     1   --> A'             
     e( 10 - 10) =     10.40895  eV     1   --> A'             
     e( 11 - 11) =     14.99781  eV     1   --> A'             
     e( 12 - 12) =     17.79595  eV     1   --> A''            
     e( 13 - 13) =     18.78512  eV     1   --> A'             
     e( 14 - 14) =     18.96744  eV     1   --> A''            
     e( 15 - 15) =     19.61812  eV     1   --> A''            
     e( 16 - 16) =     19.67357  eV     1   --> A'             

 **************************************************************************

 **************************************************************************

                    xk=(   1.01000,  -0.06000,   0.06000  )

     Band symmetry, C_s (m)     point group:

     e(  1 -  1) =    -46.25847  eV     1   --> A'             
     e(  2 -  2) =    -18.21753  eV     1   --> A'             
     e(  3 -  3) =    -18.19373  eV     1   --> A'             
     e(  4 -  4) =    -18.19246  eV     1   --> A''            
     e(  5 -  5) =    -10.11067  eV     1   --> A'             
     e(  6 -  6) =      0.25807  eV     1   --> A'             
     e(  7 -  7) =      1.56063  eV     1   --> A'             
     e(  8 -  8) =      1.62342  eV     1   --> A''            
     e(  9 -  9) =     10.29363  eV     1   --> A'             
     e( 10 - 10) =     10.47582  eV     1   --> A'             
     e( 11 - 11) =     14.91948  eV     1   --> A'             
     e( 12 - 12) =     17.54362  eV     1   --> A''            
     e( 13 - 13) =     18.64337  eV     1   --> A'             
     e( 14 - 14) =     19.24463  eV     1   --> A''            
     e( 15 - 15) =     19.56117  eV     1   --> A''            
     e( 16 - 16) =     19.76778  eV     1   --> A'             

 **************************************************************************

 **************************************************************************

                    xk=(   1.01500,  -0.09000,   0.09000  )

     Band symmetry, C_s (m)     point group:

     e(  1 -  1) =    -46.25846  eV     1   --> A'             
     e(  2 -  2) =    -18.21691  eV     1   --> A'             
     e(  3 -  3) =    -18.19506  eV     1   --> A'             
     e(  4 -  4) =    -18.19205  eV     1   --> A''            
     e(  5 -  5) =    -10.10801  eV     1   --> A'             
     e(  6 -  6) =      0.28183  eV     1   --> A'             
     e(  7 -  7) =      1.49485  eV     1   --> A'             
     e(  8 -  8) =      1.63247  eV     1   --> A''            
     e(  9 -  9) =     10.35540  eV     1   --> A'             
     e( 10 - 10) =     10.60222  eV     1   --> A'             
     e( 11 - 11) =     14.79610  eV     1   --> A'             
     e( 12 - 12) =     17.25633  eV     1   --> A''            
     e( 13 - 13) =     18.44232  eV     1   --> A'             
     e( 14 - 14) =     19.38309  eV     1   --> A''            
     e( 15 - 15) =     19.65832  eV     1   --> A''            
     e( 16 - 16) =     19.91177  eV     1   --> A'             

 **************************************************************************

 **************************************************************************

                    xk=(   1.02000,  -0.12000,   0.12000  )

     Band symmetry, C_s (m)     point group:

     e(  1 -  1) =    -46.25848  eV     1   --> A'             
     e(  2 -  2) =    -18.21617  eV     1   --> A'             
     e(  3 -  3) =    -18.19698  eV     1   --> A'             
     e(  4 -  4) =    -18.19161  eV     1   --> A''            
     e(  5 -  5) =    -10.10467  eV     1   --> A'             
     e(  6 -  6) =      0.31465  eV     1   --> A'             
     e(  7 -  7) =      1.40896  eV     1   --> A'             
     e(  8 -  8) =      1.64501  eV     1   --> A''            
     e(  9 -  9) =     10.42457  eV     1   --> A'             
     e( 10 - 10) =     10.78686  eV     1   --> A'             
     e( 11 - 11) =     14.63660  eV     1   --> A'             
     e( 12 - 12) =     16.96582  eV     1   --> A''            
     e( 13 - 13) =     18.21085  eV     1   --> A'             
     e( 14 - 14) =     19.24778  eV     1   --> A''            
     e( 15 - 15) =     20.01659  eV     1   --> A''            
     e( 16 - 16) =     20.09543  eV     1   --> A'             

 **************************************************************************

 **************************************************************************

                    xk=(   1.02500,  -0.15000,   0.15000  )

     Band symmetry, C_s (m)     point group:

     e(  1 -  1) =    -46.25848  eV     1   --> A'             
     e(  2 -  2) =    -18.21524  eV     1   --> A'             
     e(  3 -  3) =    -18.19905  eV     1   --> A'             
     e(  4 -  4) =    -18.19102  eV     1   --> A''            
     e(  5 -  5) =    -10.10101  eV     1   --> A'             
     e(  6 -  6) =      0.35610  eV     1   --> A'             
     e(  7 -  7) =      1.30834  eV     1   --> A'             
     e(  8 -  8) =      1.66093  eV     1   --> A''            
     e(  9 -  9) =     10.50368  eV     1   --> A'             
     e( 10 - 10) =     11.01818  eV     1   --> A'             
     e( 11 - 11) =     14.45051  eV     1   --> A'             
     e( 12 - 12) =     16.68309  eV     1   --> A''            
     e( 13 - 13) =     17.97164  eV     1   --> A'             
     e( 14 - 14) =     19.05903  eV     1   --> A''            
     e( 15 - 15) =     20.30936  eV     1   --> A'             
     e( 16 - 16) =     20.40972  eV     1   --> A''            

 **************************************************************************

 **************************************************************************

                    xk=(   1.03000,  -0.18000,   0.18000  )

     Band symmetry, C_s (m)     point group:

     e(  1 -  1) =    -46.25849  eV     1   --> A'             
     e(  2 -  2) =    -18.21421  eV     1   --> A'             
     e(  3 -  3) =    -18.20146  eV     1   --> A'             
     e(  4 -  4) =    -18.19034  eV     1   --> A''            
     e(  5 -  5) =    -10.09746  eV     1   --> A'             
     e(  6 -  6) =      0.40537  eV     1   --> A'             
     e(  7 -  7) =      1.19876  eV     1   --> A'             
     e(  8 -  8) =      1.68007  eV     1   --> A''            
     e(  9 -  9) =     10.59436  eV     1   --> A'             
     e( 10 - 10) =     11.28300  eV     1   --> A'             
     e( 11 - 11) =     14.24666  eV     1   --> A'             
     e( 12 - 12) =     16.41262  eV     1   --> A''            
     e( 13 - 13) =     17.74133  eV     1   --> A'             
     e( 14 - 14) =     18.83814  eV     1   --> A''            
     e( 15 - 15) =     20.54443  eV     1   --> A'             
     e( 16 - 16) =     20.81698  eV     1   --> A''            

 **************************************************************************

 **************************************************************************

                    xk=(   1.03500,  -0.21000,   0.21000  )

     Band symmetry, C_s (m)     point group:

     e(  1 -  1) =    -46.25849  eV     1   --> A'             
     e(  2 -  2) =    -18.21299  eV     1   --> A'             
     e(  3 -  3) =    -18.20398  eV     1   --> A'             
     e(  4 -  4) =    -18.18954  eV     1   --> A''            
     e(  5 -  5) =    -10.09454  eV     1   --> A'             
     e(  6 -  6) =      0.46105  eV     1   --> A'             
     e(  7 -  7) =      1.08672  eV     1   --> A'             
     e(  8 -  8) =      1.70225  eV     1   --> A''            
     e(  9 -  9) =     10.69639  eV     1   --> A'             
     e( 10 - 10) =     11.56739  eV     1   --> A'             
     e( 11 - 11) =     14.03342  eV     1   --> A'             
     e( 12 - 12) =     16.15698  eV     1   --> A''            
     e( 13 - 13) =     17.53550  eV     1   --> A'             
     e( 14 - 14) =     18.59331  eV     1   --> A''            
     e( 15 - 15) =     20.79155  eV     1   --> A'             
     e( 16 - 16) =     21.23299  eV     1   --> A''            

 **************************************************************************

 **************************************************************************

                    xk=(   1.04000,  -0.24000,   0.24000  )

     Band symmetry, C_s (m)     point group:

     e(  1 -  1) =    -46.25852  eV     1   --> A'             
     e(  2 -  2) =    -18.21231  eV     1   --> A'             
     e(  3 -  3) =    -18.20609  eV     1   --> A'             
     e(  4 -  4) =    -18.18868  eV     1   --> A''            
     e(  5 -  5) =    -10.09280  eV     1   --> A'             
     e(  6 -  6) =      0.52010  eV     1   --> A'             
     e(  7 -  7) =      0.97986  eV     1   --> A'             
     e(  8 -  8) =      1.72726  eV     1   --> A''            
     e(  9 -  9) =     10.80827  eV     1   --> A'             
     e( 10 - 10) =     11.85537  eV     1   --> A'             
     e( 11 - 11) =     13.81792  eV     1   --> A'             
     e( 12 - 12) =     15.91742  eV     1   --> A''            
     e( 13 - 13) =     17.36996  eV     1   --> A'             
     e( 14 - 14) =     18.33128  eV     1   --> A''            
     e( 15 - 15) =     21.03993  eV     1   --> A'             
     e( 16 - 16) =     21.65436  eV     1   --> A''            

 **************************************************************************

 **************************************************************************

                    xk=(   1.04500,  -0.27000,   0.27000  )

     Band symmetry, C_s (m)     point group:

     e(  1 -  1) =    -46.25853  eV     1   --> A'             
     e(  2 -  2) =    -18.21290  eV     1   --> A'             
     e(  3 -  3) =    -18.20672  eV     1   --> A'             
     e(  4 -  4) =    -18.18759  eV     1   --> A''            
     e(  5 -  5) =    -10.09283  eV     1   --> A'             
     e(  6 -  6) =      0.57404  eV     1   --> A'             
     e(  7 -  7) =      0.89058  eV     1   --> A'             
     e(  8 -  8) =      1.75486  eV     1   --> A''            
     e(  9 -  9) =     10.92733  eV     1   --> A'             
     e( 10 - 10) =     12.12802  eV     1   --> A'             
     e( 11 - 11) =     13.60782  eV     1   --> A'             
     e( 12 - 12) =     15.69538  eV     1   --> A''            
     e( 13 - 13) =     17.26280  eV     1   --> A'             
     e( 14 - 14) =     18.05800  eV     1   --> A''            
     e( 15 - 15) =     21.27296  eV     1   --> A'             
     e( 16 - 16) =     22.07815  eV     1   --> A''            

 **************************************************************************

 **************************************************************************

                    xk=(   1.05000,  -0.30000,   0.30000  )

     Band symmetry, C_s (m)     point group:

     e(  1 -  1) =    -46.25852  eV     1   --> A'             
     e(  2 -  2) =    -18.21446  eV     1   --> A'             
     e(  3 -  3) =    -18.20568  eV     1   --> A'             
     e(  4 -  4) =    -18.18647  eV     1   --> A''            
     e(  5 -  5) =    -10.09517  eV     1   --> A'             
     e(  6 -  6) =      0.59896  eV     1   --> A'             
     e(  7 -  7) =      0.84629  eV     1   --> A'             
     e(  8 -  8) =      1.78475  eV     1   --> A''            
     e(  9 -  9) =     11.04949  eV     1   --> A'             
     e( 10 - 10) =     12.36350  eV     1   --> A'             
     e( 11 - 11) =     13.41245  eV     1   --> A'             
     e( 12 - 12) =     15.49122  eV     1   --> A''            
     e( 13 - 13) =     17.23308  eV     1   --> A'             
     e( 14 - 14) =     17.77874  eV     1   --> A''            
     e( 15 - 15) =     21.45547  eV     1   --> A'             
     e( 16 - 16) =     22.34341  eV     1   --> A'             

 **************************************************************************

 **************************************************************************

                    xk=(   1.04833,  -0.32333,   0.32333  )

     Band symmetry, C_s (m)     point group:

     e(  1 -  1) =    -46.25855  eV     1   --> A'             
     e(  2 -  2) =    -18.21604  eV     1   --> A'             
     e(  3 -  3) =    -18.20477  eV     1   --> A'             
     e(  4 -  4) =    -18.18561  eV     1   --> A''            
     e(  5 -  5) =    -10.09867  eV     1   --> A'             
     e(  6 -  6) =      0.59357  eV     1   --> A'             
     e(  7 -  7) =      0.84739  eV     1   --> A'             
     e(  8 -  8) =      1.80886  eV     1   --> A''            
     e(  9 -  9) =     11.14324  eV     1   --> A'             
     e( 10 - 10) =     12.50659  eV     1   --> A'             
     e( 11 - 11) =     13.27807  eV     1   --> A'             
     e( 12 - 12) =     15.35531  eV     1   --> A''            
     e( 13 - 13) =     17.26539  eV     1   --> A'             
     e( 14 - 14) =     17.54585  eV     1   --> A''            
     e( 15 - 15) =     21.56163  eV     1   --> A'             
     e( 16 - 16) =     22.33044  eV     1   --> A'             

 **************************************************************************

 **************************************************************************

                    xk=(   1.04667,  -0.34667,   0.34667  )

     Band symmetry, C_s (m)     point group:

     e(  1 -  1) =    -46.25860  eV     1   --> A'             
     e(  2 -  2) =    -18.21766  eV     1   --> A'             
     e(  3 -  3) =    -18.20366  eV     1   --> A'             
     e(  4 -  4) =    -18.18474  eV     1   --> A''            
     e(  5 -  5) =    -10.10425  eV     1   --> A'             
     e(  6 -  6) =      0.56481  eV     1   --> A'             
     e(  7 -  7) =      0.88424  eV     1   --> A'             
     e(  8 -  8) =      1.83410  eV     1   --> A''            
     e(  9 -  9) =     11.23290  eV     1   --> A'             
     e( 10 - 10) =     12.60971  eV     1   --> A'             
     e( 11 - 11) =     13.15662  eV     1   --> A'             
     e( 12 - 12) =     15.23135  eV     1   --> A''            
     e( 13 - 13) =     17.31221  eV     1   --> A''            
     e( 14 - 14) =     17.36288  eV     1   --> A'             
     e( 15 - 15) =     21.54693  eV     1   --> A'             
     e( 16 - 16) =     22.38791  eV     1   --> A'             

 **************************************************************************

 **************************************************************************

                    xk=(   1.04500,  -0.37000,   0.37000  )

     Band symmetry, C_s (m)     point group:

     e(  1 -  1) =    -46.25865  eV     1   --> A'             
     e(  2 -  2) =    -18.21901  eV     1   --> A'             
     e(  3 -  3) =    -18.20241  eV     1   --> A'             
     e(  4 -  4) =    -18.18391  eV     1   --> A''            
     e(  5 -  5) =    -10.11209  eV     1   --> A'             
     e(  6 -  6) =      0.52987  eV     1   --> A'             
     e(  7 -  7) =      0.94047  eV     1   --> A'             
     e(  8 -  8) =      1.86032  eV     1   --> A''            
     e(  9 -  9) =     11.31367  eV     1   --> A'             
     e( 10 - 10) =     12.67068  eV     1   --> A'             
     e( 11 - 11) =     13.05230  eV     1   --> A'             
     e( 12 - 12) =     15.11945  eV     1   --> A''            
     e( 13 - 13) =     17.07954  eV     1   --> A''            
     e( 14 - 14) =     17.52840  eV     1   --> A'             
     e( 15 - 15) =     21.40303  eV     1   --> A'             
     e( 16 - 16) =     22.51804  eV     1   --> A'             

 **************************************************************************

 **************************************************************************

                    xk=(   1.04333,  -0.39333,   0.39333  )

     Band symmetry, C_s (m)     point group:

     e(  1 -  1) =    -46.25871  eV     1   --> A'             
     e(  2 -  2) =    -18.22010  eV     1   --> A'             
     e(  3 -  3) =    -18.20110  eV     1   --> A'             
     e(  4 -  4) =    -18.18311  eV     1   --> A''            
     e(  5 -  5) =    -10.12237  eV     1   --> A'             
     e(  6 -  6) =      0.49896  eV     1   --> A'             
     e(  7 -  7) =      1.00645  eV     1   --> A'             
     e(  8 -  8) =      1.88738  eV     1   --> A''            
     e(  9 -  9) =     11.37916  eV     1   --> A'             
     e( 10 - 10) =     12.69122  eV     1   --> A'             
     e( 11 - 11) =     12.97108  eV     1   --> A'             
     e( 12 - 12) =     15.01987  eV     1   --> A''            
     e( 13 - 13) =     16.84929  eV     1   --> A''            
     e( 14 - 14) =     17.76013  eV     1   --> A'             
     e( 15 - 15) =     21.16823  eV     1   --> A'             
     e( 16 - 16) =     22.65635  eV     1   --> A'             

 **************************************************************************

 **************************************************************************

                    xk=(   1.04167,  -0.41667,   0.41667  )

     Band symmetry, C_s (m)     point group:

     e(  1 -  1) =    -46.25877  eV     1   --> A'             
     e(  2 -  2) =    -18.22098  eV     1   --> A'             
     e(  3 -  3) =    -18.19964  eV     1   --> A'             
     e(  4 -  4) =    -18.18236  eV     1   --> A''            
     e(  5 -  5) =    -10.13521  eV     1   --> A'             
     e(  6 -  6) =      0.47659  eV     1   --> A'             
     e(  7 -  7) =      1.07804  eV     1   --> A'             
     e(  8 -  8) =      1.91511  eV     1   --> A''            
     e(  9 -  9) =     11.42197  eV     1   --> A'             
[...]
     e( 15 - 15) =     20.95360  eV     1   --> A'             
     e( 16 - 16) =     21.51242  eV     1   --> A'             

 **************************************************************************

 **************************************************************************

                    xk=(   1.02167,  -0.69667,   0.69667  )

     Band symmetry, C_s (m)     point group:

     e(  1 -  1) =    -46.26005  eV     1   --> A'             
     e(  2 -  2) =    -18.20412  eV     1   --> A'             
     e(  3 -  3) =    -18.18332  eV     1   --> A'             
     e(  4 -  4) =    -18.17659  eV     1   --> A''            
     e(  5 -  5) =    -10.45609  eV     1   --> A'             
     e(  6 -  6) =      1.13456  eV     1   --> A'             
     e(  7 -  7) =      1.97864  eV     1   --> A'             
     e(  8 -  8) =      2.24055  eV     1   --> A''            
     e(  9 -  9) =      9.98601  eV     1   --> A'             
     e( 10 - 10) =     12.36630  eV     1   --> A'             
     e( 11 - 11) =     13.93768  eV     1   --> A'             
     e( 12 - 12) =     14.38267  eV     1   --> A''            
     e( 13 - 13) =     14.92309  eV     1   --> A''            
     e( 14 - 14) =     16.66000  eV     1   --> A'             
     e( 15 - 15) =     20.78218  eV     1   --> A'             
     e( 16 - 16) =     21.39423  eV     1   --> A'             

 **************************************************************************

 **************************************************************************

                    xk=(   1.02000,  -0.72000,   0.72000  )

     Band symmetry, C_s (m)     point group:

     e(  1 -  1) =    -46.26019  eV     1   --> A'             
     e(  2 -  2) =    -18.20104  eV     1   --> A'             
     e(  3 -  3) =    -18.18235  eV     1   --> A'             
     e(  4 -  4) =    -18.17650  eV     1   --> A''            
     e(  5 -  5) =    -10.48860  eV     1   --> A'             
     e(  6 -  6) =      1.25514  eV     1   --> A'             
     e(  7 -  7) =      2.03900  eV     1   --> A'             
     e(  8 -  8) =      2.26236  eV     1   --> A''            
     e(  9 -  9) =      9.79551  eV     1   --> A'             
     e( 10 - 10) =     12.43065  eV     1   --> A'             
     e( 11 - 11) =     13.99404  eV     1   --> A'             
     e( 12 - 12) =     14.26398  eV     1   --> A''            
     e( 13 - 13) =     14.98484  eV     1   --> A''            
     e( 14 - 14) =     16.42810  eV     1   --> A'             
     e( 15 - 15) =     20.57803  eV     1   --> A'             
     e( 16 - 16) =     21.30478  eV     1   --> A'             

 **************************************************************************

 **************************************************************************

                    xk=(   1.01833,  -0.74333,   0.74333  )

     Band symmetry, C_s (m)     point group:

     e(  1 -  1) =    -46.26033  eV     1   --> A'             
     e(  2 -  2) =    -18.19795  eV     1   --> A'             
     e(  3 -  3) =    -18.18141  eV     1   --> A'             
     e(  4 -  4) =    -18.17642  eV     1   --> A''            
     e(  5 -  5) =    -10.52024  eV     1   --> A'             
     e(  6 -  6) =      1.38074  eV     1   --> A'             
     e(  7 -  7) =      2.09512  eV     1   --> A'             
     e(  8 -  8) =      2.28276  eV     1   --> A''            
     e(  9 -  9) =      9.60544  eV     1   --> A'             
     e( 10 - 10) =     12.50960  eV     1   --> A'             
     e( 11 - 11) =     14.02375  eV     1   --> A'             
     e( 12 - 12) =     14.15148  eV     1   --> A''            
     e( 13 - 13) =     15.05852  eV     1   --> A''            
     e( 14 - 14) =     16.23580  eV     1   --> A'             
     e( 15 - 15) =     20.34100  eV     1   --> A'             
     e( 16 - 16) =     21.24294  eV     1   --> A'             

 **************************************************************************

 **************************************************************************

                    xk=(   1.01667,  -0.76667,   0.76667  )

     Band symmetry, C_s (m)     point group:

     e(  1 -  1) =    -46.26045  eV     1   --> A'             
     e(  2 -  2) =    -18.19482  eV     1   --> A'             
     e(  3 -  3) =    -18.18054  eV     1   --> A'             
     e(  4 -  4) =    -18.17635  eV     1   --> A''            
     e(  5 -  5) =    -10.55062  eV     1   --> A'             
     e(  6 -  6) =      1.50952  eV     1   --> A'             
     e(  7 -  7) =      2.14677  eV     1   --> A'             
     e(  8 -  8) =      2.30165  eV     1   --> A''            
     e(  9 -  9) =      9.41768  eV     1   --> A'             
     e( 10 - 10) =     12.60183  eV     1   --> A'             
     e( 11 - 11) =     14.02460  eV     1   --> A'             
     e( 12 - 12) =     14.04708  eV     1   --> A''            
     e( 13 - 13) =     15.14100  eV     1   --> A''            
     e( 14 - 14) =     16.08545  eV     1   --> A'             
     e( 15 - 15) =     20.07614  eV     1   --> A'             
     e( 16 - 16) =     21.20480  eV     1   --> A'             

 **************************************************************************

 **************************************************************************

                    xk=(   1.01500,  -0.79000,   0.79000  )

     Band symmetry, C_s (m)     point group:

     e(  1 -  1) =    -46.26059  eV     1   --> A'             
     e(  2 -  2) =    -18.19198  eV     1   --> A'             
     e(  3 -  3) =    -18.17974  eV     1   --> A'             
     e(  4 -  4) =    -18.17632  eV     1   --> A''            
     e(  5 -  5) =    -10.57936  eV     1   --> A'             
     e(  6 -  6) =      1.63935  eV     1   --> A'             
     e(  7 -  7) =      2.19376  eV     1   --> A'             
     e(  8 -  8) =      2.31897  eV     1   --> A''            
     e(  9 -  9) =      9.23426  eV     1   --> A'             
     e( 10 - 10) =     12.70564  eV     1   --> A'             
     e( 11 - 11) =     13.95166  eV     1   --> A''            
     e( 12 - 12) =     13.99740  eV     1   --> A'             
     e( 13 - 13) =     15.22963  eV     1   --> A''            
     e( 14 - 14) =     15.97602  eV     1   --> A'             
     e( 15 - 15) =     19.79163  eV     1   --> A'             
     e( 16 - 16) =     21.18520  eV     1   --> A'             

 **************************************************************************

 **************************************************************************

                    xk=(   1.01333,  -0.81333,   0.81333  )

     Band symmetry, C_s (m)     point group:

     e(  1 -  1) =    -46.26068  eV     1   --> A'             
     e(  2 -  2) =    -18.18897  eV     1   --> A'             
     e(  3 -  3) =    -18.17901  eV     1   --> A'             
     e(  4 -  4) =    -18.17621  eV     1   --> A''            
     e(  5 -  5) =    -10.60610  eV     1   --> A'             
     e(  6 -  6) =      1.76787  eV     1   --> A'             
     e(  7 -  7) =      2.23596  eV     1   --> A'             
     e(  8 -  8) =      2.33464  eV     1   --> A''            
     e(  9 -  9) =      9.05768  eV     1   --> A'             
     e( 10 - 10) =     12.81879  eV     1   --> A'             
     e( 11 - 11) =     13.86568  eV     1   --> A''            
     e( 12 - 12) =     13.94712  eV     1   --> A'             
     e( 13 - 13) =     15.32230  eV     1   --> A''            
     e( 14 - 14) =     15.90311  eV     1   --> A'             
     e( 15 - 15) =     19.49731  eV     1   --> A'             
     e( 16 - 16) =     21.18141  eV     1   --> A'             

 **************************************************************************

 **************************************************************************

                    xk=(   1.01167,  -0.83667,   0.83667  )

     Band symmetry, C_s (m)     point group:

     e(  1 -  1) =    -46.26078  eV     1   --> A'             
     e(  2 -  2) =    -18.18623  eV     1   --> A'             
     e(  3 -  3) =    -18.17833  eV     1   --> A'             
     e(  4 -  4) =    -18.17621  eV     1   --> A''            
     e(  5 -  5) =    -10.63052  eV     1   --> A'             
     e(  6 -  6) =      1.89241  eV     1   --> A'             
     e(  7 -  7) =      2.27326  eV     1   --> A'             
     e(  8 -  8) =      2.34859  eV     1   --> A''            
     e(  9 -  9) =      8.89046  eV     1   --> A'             
     e( 10 - 10) =     12.93842  eV     1   --> A'             
     e( 11 - 11) =     13.78942  eV     1   --> A''            
     e( 12 - 12) =     13.88121  eV     1   --> A'             
     e( 13 - 13) =     15.41615  eV     1   --> A''            
     e( 14 - 14) =     15.85920  eV     1   --> A'             
     e( 15 - 15) =     19.20348  eV     1   --> A'             
     e( 16 - 16) =     21.18911  eV     1   --> A'             

 **************************************************************************

 **************************************************************************

                    xk=(   1.01000,  -0.86000,   0.86000  )

     Band symmetry, C_s (m)     point group:

     e(  1 -  1) =    -46.26087  eV     1   --> A'             
     e(  2 -  2) =    -18.18374  eV     1   --> A'             
     e(  3 -  3) =    -18.17780  eV     1   --> A'             
     e(  4 -  4) =    -18.17624  eV     1   --> A''            
     e(  5 -  5) =    -10.65232  eV     1   --> A'             
     e(  6 -  6) =      2.01001  eV     1   --> A'             
     e(  7 -  7) =      2.30559  eV     1   --> A'             
     e(  8 -  8) =      2.36076  eV     1   --> A''            
     e(  9 -  9) =      8.73557  eV     1   --> A'             
     e( 10 - 10) =     13.06082  eV     1   --> A'             
     e( 11 - 11) =     13.72306  eV     1   --> A''            
     e( 12 - 12) =     13.80809  eV     1   --> A'             
     e( 13 - 13) =     15.50834  eV     1   --> A''            
     e( 14 - 14) =     15.83618  eV     1   --> A'             
     e( 15 - 15) =     18.92009  eV     1   --> A'             
     e( 16 - 16) =     21.20517  eV     1   --> A'             

 **************************************************************************

 **************************************************************************

                    xk=(   1.00833,  -0.88333,   0.88333  )

     Band symmetry, C_s (m)     point group:

     e(  1 -  1) =    -46.26094  eV     1   --> A'             
     e(  2 -  2) =    -18.18153  eV     1   --> A'             
     e(  3 -  3) =    -18.17730  eV     1   --> A'             
     e(  4 -  4) =    -18.17618  eV     1   --> A''            
     e(  5 -  5) =    -10.67122  eV     1   --> A'             
     e(  6 -  6) =      2.11752  eV     1   --> A'             
     e(  7 -  7) =      2.33294  eV     1   --> A'             
     e(  8 -  8) =      2.37115  eV     1   --> A''            
     e(  9 -  9) =      8.59624  eV     1   --> A'             
     e( 10 - 10) =     13.18138  eV     1   --> A'             
     e( 11 - 11) =     13.66675  eV     1   --> A''            
     e( 12 - 12) =     13.73539  eV     1   --> A'             
     e( 13 - 13) =     15.59564  eV     1   --> A''            
     e( 14 - 14) =     15.82673  eV     1   --> A'             
     e( 15 - 15) =     18.65678  eV     1   --> A'             
     e( 16 - 16) =     21.22638  eV     1   --> A'             

 **************************************************************************

 **************************************************************************

                    xk=(   1.00667,  -0.90667,   0.90667  )

     Band symmetry, C_s (m)     point group:

     e(  1 -  1) =    -46.26102  eV     1   --> A'             
     e(  2 -  2) =    -18.17977  eV     1   --> A'             
     e(  3 -  3) =    -18.17701  eV     1   --> A'             
     e(  4 -  4) =    -18.17624  eV     1   --> A''            
     e(  5 -  5) =    -10.68701  eV     1   --> A'             
     e(  6 -  6) =      2.21164  eV     1   --> A'             
     e(  7 -  7) =      2.35529  eV     1   --> A'             
     e(  8 -  8) =      2.37969  eV     1   --> A''            
     e(  9 -  9) =      8.47581  eV     1   --> A'             
     e( 10 - 10) =     13.29438  eV     1   --> A'             
     e( 11 - 11) =     13.62057  eV     1   --> A''            
     e( 12 - 12) =     13.66916  eV     1   --> A'             
     e( 13 - 13) =     15.67436  eV     1   --> A''            
     e( 14 - 14) =     15.82513  eV     1   --> A'             
     e( 15 - 15) =     18.42288  eV     1   --> A'             
     e( 16 - 16) =     21.24904  eV     1   --> A'             

 **************************************************************************

 **************************************************************************

                    xk=(   1.00500,  -0.93000,   0.93000  )

     Band symmetry, C_s (m)     point group:

     e(  1 -  1) =    -46.26109  eV     1   --> A'             
     e(  2 -  2) =    -18.17848  eV     1   --> A'             
     e(  3 -  3) =    -18.17674  eV     1   --> A'             
     e(  4 -  4) =    -18.17618  eV     1   --> A''            
     e(  5 -  5) =    -10.69949  eV     1   --> A'             
     e(  6 -  6) =      2.28912  eV     1   --> A'             
     e(  7 -  7) =      2.37265  eV     1   --> A'             
     e(  8 -  8) =      2.38638  eV     1   --> A''            
     e(  9 -  9) =      8.37768  eV     1   --> A'             
     e( 10 - 10) =     13.39330  eV     1   --> A'             
     e( 11 - 11) =     13.58459  eV     1   --> A''            
     e( 12 - 12) =     13.61381  eV     1   --> A'             
     e( 13 - 13) =     15.74083  eV     1   --> A''            
     e( 14 - 14) =     15.82730  eV     1   --> A'             
     e( 15 - 15) =     18.22764  eV     1   --> A'             
     e( 16 - 16) =     21.26997  eV     1   --> A'             

 **************************************************************************

 **************************************************************************

                    xk=(   1.00333,  -0.95333,   0.95333  )

     Band symmetry, C_s (m)     point group:

     e(  1 -  1) =    -46.26111  eV     1   --> A'             
     e(  2 -  2) =    -18.17746  eV     1   --> A'             
     e(  3 -  3) =    -18.17639  eV     1   --> A'             
     e(  4 -  4) =    -18.17608  eV     1   --> A''            
     e(  5 -  5) =    -10.70851  eV     1   --> A'             
     e(  6 -  6) =      2.34698  eV     1   --> A'             
     e(  7 -  7) =      2.38507  eV     1   --> A'             
     e(  8 -  8) =      2.39118  eV     1   --> A''            
     e(  9 -  9) =      8.30502  eV     1   --> A'             
     e( 10 - 10) =     13.47106  eV     1   --> A'             
     e( 11 - 11) =     13.55886  eV     1   --> A''            
     e( 12 - 12) =     13.57240  eV     1   --> A'             
     e( 13 - 13) =     15.79144  eV     1   --> A''            
     e( 14 - 14) =     15.83054  eV     1   --> A'             
     e( 15 - 15) =     18.07995  eV     1   --> A'             
     e( 16 - 16) =     21.28741  eV     1   --> A'             

 **************************************************************************

 **************************************************************************

                    xk=(   1.00167,  -0.97667,   0.97667  )

     Band symmetry, C_s (m)     point group:

     e(  1 -  1) =    -46.26105  eV     1   --> A'             
     e(  2 -  2) =    -18.17624  eV     1   --> A'             
     e(  3 -  4) =    -18.17605  eV     2   --> A'             
     e(  3 -  4) =    -18.17605  eV     2   --> A''            
     e(  5 -  5) =    -10.71397  eV     1   --> A'             
     e(  6 -  6) =      2.38291  eV     1   --> A'             
     e(  7 -  7) =      2.39255  eV     1   --> A'             
     e(  8 -  8) =      2.39407  eV     1   --> A''            
     e(  9 -  9) =      8.26034  eV     1   --> A'             
     e( 10 - 10) =     13.52101  eV     1   --> A'             
     e( 11 - 11) =     13.54341  eV     1   --> A''            
     e( 12 - 12) =     13.54688  eV     1   --> A'             
     e( 13 - 13) =     15.82319  eV     1   --> A''            
     e( 14 - 14) =     15.83308  eV     1   --> A'             
     e( 15 - 15) =     17.98763  eV     1   --> A'             
     e( 16 - 16) =     21.30178  eV     1   --> A'             

 **************************************************************************

 **************************************************************************

                    xk=(   1.00000,  -1.00000,   1.00000  )

     point group O_h (m-3m) 
     there are 10 classes
     the character table:

       E     8C3   3C2   6C4   6C2'  i     8S6   3s_h  6S4   6s_d 
A_1g   1.00  1.00  1.00  1.00  1.00  1.00  1.00  1.00  1.00  1.00
A_2g   1.00  1.00  1.00 -1.00 -1.00  1.00  1.00  1.00 -1.00 -1.00
E_g    2.00 -1.00  2.00  0.00  0.00  2.00 -1.00  2.00  0.00  0.00
T_1g   3.00  0.00 -1.00  1.00 -1.00  3.00  0.00 -1.00  1.00 -1.00
T_2g   3.00  0.00 -1.00 -1.00  1.00  3.00  0.00 -1.00 -1.00  1.00
A_1u   1.00  1.00  1.00  1.00  1.00 -1.00 -1.00 -1.00 -1.00 -1.00
A_2u   1.00  1.00  1.00 -1.00 -1.00 -1.00 -1.00 -1.00  1.00  1.00
E_u    2.00 -1.00  2.00  0.00  0.00 -2.00  1.00 -2.00  0.00  0.00
T_1u   3.00  0.00 -1.00  1.00 -1.00 -3.00  0.00  1.00 -1.00  1.00
T_2u   3.00  0.00 -1.00 -1.00  1.00 -3.00  0.00  1.00  1.00 -1.00

     the symmetry operations in each class and the name of the first element:

     E        1
                                                                 
     8C3     17   19   20   18   24   21   22   23
                                                                 
     3C2      2    4    3
                                                                 
     6C4      7    8   15   16   12   11
                                                                 
     6C2'     5    6   14   13   10    9
                                                                 
     i       25
                                                                 
     8S6     41   43   44   42   48   45   46   47
                                                                 
     3s_h    26   28   27
                                                                 
     6S4     31   32   39   40   36   35
                                                                 
     6s_d    29   30   38   37   34   33
                                                                 

     Band symmetry, O_h (m-3m)  point group:

     e(  1 -  1) =    -46.26106  eV     1   --> A_1g G_1   G_1+
     e(  2 -  4) =    -18.17601  eV     3   --> T_1u G_15  G_4-
     e(  5 -  5) =    -10.71580  eV     1   --> A_1g G_1   G_1+
     e(  6 -  8) =      2.39502  eV     3   --> T_1u G_15  G_4-
     e(  9 -  9) =      8.24525  eV     1   --> A_1g G_1   G_1+
     e( 10 - 12) =     13.53826  eV     3   --> T_2g G_25' G_5+
     e( 13 - 14) =     15.83402  eV     2   --> E_g  G_12  G_3+
     e( 15 - 15) =     17.95618  eV     1   --> A_2u G_2'  G_2-
     e( 16 - 16) =     21.30577  eV     1   -->   ?

 **************************************************************************

     BANDS        :     17.05s CPU     18.16s WALL


   This run was terminated on:  14:52:19  12Nov2022            

=------------------------------------------------------------------------------=
   JOB DONE.
=------------------------------------------------------------------------------=
