
     Program PWSCF v.6.7MaX starts on 11Nov2022 at 21:51:14 

     This program is part of the open-source Quantum ESPRESSO suite
     for quantum simulation of materials; please cite
         "P. Giannozzi et al., J. Phys.:Condens. Matter 21 395502 (2009);
         "P. Giannozzi et al., J. Phys.:Condens. Matter 29 465901 (2017);
          URL http://www.quantum-espresso.org", 
     in publications or presentations arising from this work. More details at
     http://www.quantum-espresso.org/quote

     Parallel version (MPI), running on     1 processors

     MPI processes distributed on     1 nodes
     Waiting for input...
     Reading input from standard input
     Message from routine read_cards :
     DEPRECATED: no units specified in ATOMIC_POSITIONS card
     Message from routine read_cards :
     ATOMIC_POSITIONS: units set to alat

     Current dimensions of program PWSCF are:
     Max number of different atomic species (ntypx) = 10
     Max number of k-points (npk) =  40000
     Max angular momentum in pseudopotentials (lmaxx) =  3

     Atomic positions and unit cell read from directory:
     ./tmp/NaCl.save/

     file Na.pbe-spn-kjpaw_psl.1.0.0.UPF: wavefunction(s)  2P renormalized
     file Cl.pbe-n-kjpaw_psl.1.0.0.UPF: wavefunction(s)  3S 3P renormalized

     Subspace diagonalization in iterative solution of the eigenvalue problem:
     a serial algorithm will be used


     G-vector sticks info
     --------------------
     sticks:   dense  smooth     PW     G-vecs:    dense   smooth      PW
     Sum        1111    1069    349                24213    23505    4279



     bravais-lattice index     =            2
     lattice parameter (alat)  =      11.4606  a.u.
     unit-cell volume          =     376.3212 (a.u.)^3
     number of atoms/cell      =            2
     number of atomic types    =            2
     number of electrons       =        16.00
     number of Kohn-Sham states=           16
     kinetic-energy cutoff     =      60.0000  Ry
     charge density cutoff     =     244.0000  Ry
     Exchange-correlation= SLA  PW   PBX  PBC
                           (   1   4   3   4   0   0   0)

     celldm(1)=  11.460570  celldm(2)=   0.000000  celldm(3)=   0.000000
     celldm(4)=   0.000000  celldm(5)=   0.000000  celldm(6)=   0.000000

     crystal axes: (cart. coord. in units of alat)
               a(1) = (  -0.500000   0.000000   0.500000 )  
               a(2) = (   0.000000   0.500000   0.500000 )  
               a(3) = (  -0.500000   0.500000   0.000000 )  

     reciprocal axes: (cart. coord. in units 2 pi/alat)
               b(1) = ( -1.000000 -1.000000  1.000000 )  
               b(2) = (  1.000000  1.000000  1.000000 )  
               b(3) = ( -1.000000  1.000000 -1.000000 )  


     PseudoPot. # 1 for Na read from file:
     ./Na.pbe-spn-kjpaw_psl.1.0.0.UPF
     MD5 check sum: 2d3bf706d6c1b56787a12f8ec1fa0108
     Pseudo is Projector augmented-wave + core cor, Zval =  9.0
     Generated using &quot;atomic&quot; code by A. Dal Corso  v.6.3
     Shape of augmentation charge: PSQ
     Using radial grid of 1121 points,  4 beta functions with: 
                l(1) =   0
                l(2) =   0
                l(3) =   1
                l(4) =   1
     Q(r) pseudized with 0 coefficients 


     PseudoPot. # 2 for Cl read from file:
     ./Cl.pbe-n-kjpaw_psl.1.0.0.UPF
     MD5 check sum: 742572be94a3d2fc30b29275f2c5bbd2
     Pseudo is Projector augmented-wave + core cor, Zval =  7.0
     Generated using &quot;atomic&quot; code by A. Dal Corso  v.6.3
     Shape of augmentation charge: PSQ
     Using radial grid of 1157 points,  6 beta functions with: 
                l(1) =   0
                l(2) =   0
                l(3) =   1
                l(4) =   1
                l(5) =   2
                l(6) =   2
     Q(r) pseudized with 0 coefficients 


     atomic species   valence    mass     pseudopotential
        Na             9.00    22.98977     Na( 1.00)
        Cl             7.00    35.45320     Cl( 1.00)

     24 Sym. Ops. (no inversion) found



   Cartesian axes

     site n.     atom                  positions (alat units)
         1           Na  tau(   1) = (   0.0000000   0.0000000   0.0000000  )
         2           Cl  tau(   2) = (   0.2500000   0.2500000   0.2500000  )

     number of k points=    91
                       cart. coord. in units 2pi/alat
        k(    1) = (   0.5000000   0.5000000   0.5000000), wk =   0.0219780
        k(    2) = (   0.4750000   0.4750000   0.4750000), wk =   0.0219780
        k(    3) = (   0.4500000   0.4500000   0.4500000), wk =   0.0219780
        k(    4) = (   0.4250000   0.4250000   0.4250000), wk =   0.0219780
        k(    5) = (   0.4000000   0.4000000   0.4000000), wk =   0.0219780
        k(    6) = (   0.3750000   0.3750000   0.3750000), wk =   0.0219780
        k(    7) = (   0.3500000   0.3500000   0.3500000), wk =   0.0219780
        k(    8) = (   0.3250000   0.3250000   0.3250000), wk =   0.0219780
        k(    9) = (   0.3000000   0.3000000   0.3000000), wk =   0.0219780
        k(   10) = (   0.2750000   0.2750000   0.2750000), wk =   0.0219780
        k(   11) = (   0.2500000   0.2500000   0.2500000), wk =   0.0219780
        k(   12) = (   0.2250000   0.2250000   0.2250000), wk =   0.0219780
        k(   13) = (   0.2000000   0.2000000   0.2000000), wk =   0.0219780
        k(   14) = (   0.1750000   0.1750000   0.1750000), wk =   0.0219780
        k(   15) = (   0.1500000   0.1500000   0.1500000), wk =   0.0219780
        k(   16) = (   0.1250000   0.1250000   0.1250000), wk =   0.0219780
        k(   17) = (   0.1000000   0.1000000   0.1000000), wk =   0.0219780
        k(   18) = (   0.0750000   0.0750000   0.0750000), wk =   0.0219780
        k(   19) = (   0.0500000   0.0500000   0.0500000), wk =   0.0219780
        k(   20) = (   0.0250000   0.0250000   0.0250000), wk =   0.0219780
        k(   21) = (   0.0000000   0.0000000   0.0000000), wk =   0.0219780
        k(   22) = (   0.0333333   0.0000000   0.0000000), wk =   0.0219780
        k(   23) = (   0.0666667   0.0000000   0.0000000), wk =   0.0219780
        k(   24) = (   0.1000000   0.0000000   0.0000000), wk =   0.0219780
        k(   25) = (   0.1333333   0.0000000   0.0000000), wk =   0.0219780
        k(   26) = (   0.1666667   0.0000000   0.0000000), wk =   0.0219780
        k(   27) = (   0.2000000   0.0000000   0.0000000), wk =   0.0219780
        k(   28) = (   0.2333333   0.0000000   0.0000000), wk =   0.0219780
        k(   29) = (   0.2666667   0.0000000   0.0000000), wk =   0.0219780
        k(   30) = (   0.3000000   0.0000000   0.0000000), wk =   0.0219780
        k(   31) = (   0.3333333   0.0000000   0.0000000), wk =   0.0219780
        k(   32) = (   0.3666667   0.0000000   0.0000000), wk =   0.0219780
        k(   33) = (   0.4000000   0.0000000   0.0000000), wk =   0.0219780
        k(   34) = (   0.4333333   0.0000000   0.0000000), wk =   0.0219780
        k(   35) = (   0.4666667   0.0000000   0.0000000), wk =   0.0219780
        k(   36) = (   0.5000000   0.0000000   0.0000000), wk =   0.0219780
        k(   37) = (   0.5333333   0.0000000   0.0000000), wk =   0.0219780
        k(   38) = (   0.5666667   0.0000000   0.0000000), wk =   0.0219780
        k(   39) = (   0.6000000   0.0000000   0.0000000), wk =   0.0219780
        k(   40) = (   0.6333333   0.0000000   0.0000000), wk =   0.0219780
        k(   41) = (   0.6666667   0.0000000   0.0000000), wk =   0.0219780
        k(   42) = (   0.7000000   0.0000000   0.0000000), wk =   0.0219780
        k(   43) = (   0.7333333   0.0000000   0.0000000), wk =   0.0219780
        k(   44) = (   0.7666667   0.0000000   0.0000000), wk =   0.0219780
        k(   45) = (   0.8000000   0.0000000   0.0000000), wk =   0.0219780
        k(   46) = (   0.8333333   0.0000000   0.0000000), wk =   0.0219780
        k(   47) = (   0.8666667   0.0000000   0.0000000), wk =   0.0219780
        k(   48) = (   0.9000000   0.0000000   0.0000000), wk =   0.0219780
        k(   49) = (   0.9333333   0.0000000   0.0000000), wk =   0.0219780
        k(   50) = (   0.9666667   0.0000000   0.0000000), wk =   0.0219780
        k(   51) = (   1.0000000   0.0000000   0.0000000), wk =   0.0219780
        k(   52) = (   1.0050000  -0.0300000   0.0300000), wk =   0.0219780
        k(   53) = (   1.0100000  -0.0600000   0.0600000), wk =   0.0219780
        k(   54) = (   1.0150000  -0.0900000   0.0900000), wk =   0.0219780
        k(   55) = (   1.0200000  -0.1200000   0.1200000), wk =   0.0219780
        k(   56) = (   1.0250000  -0.1500000   0.1500000), wk =   0.0219780
        k(   57) = (   1.0300000  -0.1800000   0.1800000), wk =   0.0219780
        k(   58) = (   1.0350000  -0.2100000   0.2100000), wk =   0.0219780
        k(   59) = (   1.0400000  -0.2400000   0.2400000), wk =   0.0219780
        k(   60) = (   1.0450000  -0.2700000   0.2700000), wk =   0.0219780
        k(   61) = (   1.0500000  -0.3000000   0.3000000), wk =   0.0219780
        k(   62) = (   1.0483333  -0.3233333   0.3233333), wk =   0.0219780
        k(   63) = (   1.0466667  -0.3466667   0.3466667), wk =   0.0219780
        k(   64) = (   1.0450000  -0.3700000   0.3700000), wk =   0.0219780
        k(   65) = (   1.0433333  -0.3933333   0.3933333), wk =   0.0219780
        k(   66) = (   1.0416667  -0.4166667   0.4166667), wk =   0.0219780
        k(   67) = (   1.0400000  -0.4400000   0.4400000), wk =   0.0219780
        k(   68) = (   1.0383333  -0.4633333   0.4633333), wk =   0.0219780
        k(   69) = (   1.0366667  -0.4866667   0.4866667), wk =   0.0219780
        k(   70) = (   1.0350000  -0.5100000   0.5100000), wk =   0.0219780
        k(   71) = (   1.0333333  -0.5333333   0.5333333), wk =   0.0219780
        k(   72) = (   1.0316667  -0.5566667   0.5566667), wk =   0.0219780
        k(   73) = (   1.0300000  -0.5800000   0.5800000), wk =   0.0219780
        k(   74) = (   1.0283333  -0.6033333   0.6033333), wk =   0.0219780
        k(   75) = (   1.0266667  -0.6266667   0.6266667), wk =   0.0219780
        k(   76) = (   1.0250000  -0.6500000   0.6500000), wk =   0.0219780
        k(   77) = (   1.0233333  -0.6733333   0.6733333), wk =   0.0219780
        k(   78) = (   1.0216667  -0.6966667   0.6966667), wk =   0.0219780
        k(   79) = (   1.0200000  -0.7200000   0.7200000), wk =   0.0219780
        k(   80) = (   1.0183333  -0.7433333   0.7433333), wk =   0.0219780
        k(   81) = (   1.0166667  -0.7666667   0.7666667), wk =   0.0219780
        k(   82) = (   1.0150000  -0.7900000   0.7900000), wk =   0.0219780
        k(   83) = (   1.0133333  -0.8133333   0.8133333), wk =   0.0219780
        k(   84) = (   1.0116667  -0.8366667   0.8366667), wk =   0.0219780
        k(   85) = (   1.0100000  -0.8600000   0.8600000), wk =   0.0219780
        k(   86) = (   1.0083333  -0.8833333   0.8833333), wk =   0.0219780
        k(   87) = (   1.0066667  -0.9066667   0.9066667), wk =   0.0219780
        k(   88) = (   1.0050000  -0.9300000   0.9300000), wk =   0.0219780
        k(   89) = (   1.0033333  -0.9533333   0.9533333), wk =   0.0219780
        k(   90) = (   1.0016667  -0.9766667   0.9766667), wk =   0.0219780
        k(   91) = (   1.0000000  -1.0000000   1.0000000), wk =   0.0219780

     Dense  grid:    24213 G-vectors     FFT dimensions: (  45,  45,  45)

     Smooth grid:    23505 G-vectors     FFT dimensions: (  40,  40,  40)

     Estimated max dynamical RAM per process >      83.57 MB

     Check: negative core charge=   -0.000006

     The potential is recalculated from file :
     ./tmp/NaCl.save/charge-density

     Starting wfcs are    9 randomized atomic wfcs +    7 random wfcs
     Checking if some PAW data can be deallocated... 

     Band Structure Calculation
     Davidson diagonalization with overlap

     ethr =  6.25E-11,  avg # of iterations = 57.3

     total cpu time spent up to now is      159.6 secs

     End of band structure calculation

          k = 0.5000 0.5000 0.5000 (  2938 PWs)   bands (ev):

   -49.3774 -21.3194 -21.3024 -21.3024 -12.8305  -1.9698  -0.9179  -0.9179
     6.9193   8.3484   9.9179   9.9179  13.9318  14.0323  14.0323  15.0174

          k = 0.4750 0.4750 0.4750 (  2932 PWs)   bands (ev):

   -49.3774 -21.3191 -21.3023 -21.3023 -12.8315  -1.9642  -0.9173  -0.9173
     6.8965   8.3666   9.9243   9.9243  13.8868  13.9653  13.9653  15.0913

          k = 0.4500 0.4500 0.4500 (  2953 PWs)   bands (ev):

   -49.3775 -21.3191 -21.3024 -21.3024 -12.8347  -1.9474  -0.9156  -0.9156
     6.8307   8.4185   9.9431   9.9431  13.7813  13.7937  13.7937  15.2825

          k = 0.4250 0.4250 0.4250 (  2962 PWs)   bands (ev):

   -49.3775 -21.3187 -21.3024 -21.3024 -12.8400  -1.9196  -0.9127  -0.9127
     6.7288   8.4979   9.9745   9.9745  13.5681  13.5681  13.6605  15.5448

          k = 0.4000 0.4000 0.4000 (  2956 PWs)   bands (ev):

   -49.3775 -21.3179 -21.3023 -21.3023 -12.8471  -1.8811  -0.9088  -0.9088
     6.5984   8.5978  10.0178  10.0178  13.3219  13.3219  13.5511  15.8491

          k = 0.3750 0.3750 0.3750 (  2953 PWs)   bands (ev):

   -49.3775 -21.3170 -21.3021 -21.3021 -12.8560  -1.8324  -0.9039  -0.9039
     6.4459   8.7128  10.0724  10.0724  13.0731  13.0731  13.4656  16.1776

          k = 0.3500 0.3500 0.3500 (  2941 PWs)   bands (ev):

   -49.3775 -21.3157 -21.3019 -21.3019 -12.8663  -1.7743  -0.8981  -0.8981
     6.2767   8.8391  10.1373  10.1373  12.8316  12.8316  13.4099  16.5172

          k = 0.3250 0.3250 0.3250 (  2929 PWs)   bands (ev):

   -49.3775 -21.3142 -21.3017 -21.3017 -12.8779  -1.7075  -0.8917  -0.8917
     6.0950   8.9739  10.2111  10.2111  12.6035  12.6035  13.3864  16.8517

          k = 0.3000 0.3000 0.3000 (  2938 PWs)   bands (ev):

   -49.3776 -21.3129 -21.3016 -21.3016 -12.8904  -1.6332  -0.8847  -0.8847
     5.9045   9.1152  10.2915  10.2915  12.3933  12.3933  13.3958  17.1542

          k = 0.2750 0.2750 0.2750 (  2932 PWs)   bands (ev):

   -49.3776 -21.3114 -21.3015 -21.3015 -12.9035  -1.5524  -0.8772  -0.8772
     5.7090   9.2617  10.3755  10.3755  12.2060  12.2060  13.4374  17.3765

          k = 0.2500 0.2500 0.2500 (  2929 PWs)   bands (ev):

   -49.3776 -21.3099 -21.3013 -21.3013 -12.9168  -1.4666  -0.8696  -0.8696
     5.5118   9.4120  10.4583  10.4583  12.0466  12.0466  13.5096  17.3649

          k = 0.2250 0.2250 0.2250 (  2935 PWs)   bands (ev):

   -49.3776 -21.3084 -21.3013 -21.3013 -12.9302  -1.3775  -0.8619  -0.8619
     5.3164   9.5643  10.5331  10.5331  11.9218  11.9218  13.6102  17.0602

          k = 0.2000 0.2000 0.2000 (  2929 PWs)   bands (ev):

   -49.3776 -21.3068 -21.3011 -21.3011 -12.9431  -1.2871  -0.8544  -0.8544
     5.1266   9.7170  10.5918  10.5918  11.8395  11.8395  13.7364  16.7338

          k = 0.1750 0.1750 0.1750 (  2935 PWs)   bands (ev):

   -49.3777 -21.3055 -21.3010 -21.3010 -12.9554  -1.1976  -0.8472  -0.8472
     4.9460   9.8673  10.6264  10.6264  11.8057  11.8057  13.8845  16.4076

          k = 0.1500 0.1500 0.1500 (  2930 PWs)   bands (ev):

   -49.3777 -21.3043 -21.3008 -21.3008 -12.9667  -1.1115  -0.8405  -0.8405
     4.7785  10.0124  10.6345  10.6345  11.8207  11.8207  14.0504  16.0936

          k = 0.1250 0.1250 0.1250 (  2945 PWs)   bands (ev):

   -49.3777 -21.3033 -21.3008 -21.3008 -12.9768  -1.0315  -0.8345  -0.8345
     4.6277  10.1484  10.6208  10.6208  11.8758  11.8758  14.2291  15.8008

          k = 0.1000 0.1000 0.1000 (  2936 PWs)   bands (ev):

   -49.3777 -21.3023 -21.3006 -21.3006 -12.9853  -0.9604  -0.8294  -0.8294
     4.4976  10.2710  10.5952  10.5952  11.9560  11.9560  14.4146  15.5378

          k = 0.0750 0.0750 0.0750 (  2930 PWs)   bands (ev):

   -49.3777 -21.3014 -21.3005 -21.3005 -12.9922  -0.9013  -0.8252  -0.8252
     4.3918  10.3745  10.5669  10.5669  12.0445  12.0445  14.5993  15.3141

          k = 0.0500 0.0500 0.0500 (  2930 PWs)   bands (ev):

   -49.3777 -21.3009 -21.3004 -21.3004 -12.9972  -0.8568  -0.8222  -0.8222
     4.3135  10.4536  10.5424  10.5424  12.1244  12.1244  14.7740  15.1410

          k = 0.0250 0.0250 0.0250 (  2924 PWs)   bands (ev):

   -49.3777 -21.3005 -21.3003 -21.3003 -13.0003  -0.8291  -0.8203  -0.8203
     4.2655  10.5035  10.5264  10.5264  12.1803  12.1803  14.9218  15.0304

          k = 0.0000 0.0000 0.0000 (  2891 PWs)   bands (ev):

   -49.3776 -21.3000 -21.3000 -21.3000 -13.0013  -0.8197  -0.8197  -0.8197
     4.2493  10.5213  10.5213  10.5213  12.2005  12.2005  14.9923  14.9923

          k = 0.0333 0.0000 0.0000 (  2923 PWs)   bands (ev):

   -49.3777 -21.3005 -21.3003 -21.3003 -13.0007  -0.8242  -0.8207  -0.8207
     4.2589  10.5105  10.5241  10.5241  12.1726  12.2042  14.9781  14.9990

          k = 0.0667 0.0000 0.0000 (  2923 PWs)   bands (ev):

   -49.3777 -21.3006 -21.3003 -21.3003 -12.9989  -0.8374  -0.8235  -0.8235
     4.2876  10.4809  10.5340  10.5340  12.0918  12.2152  14.9557  15.0194

          k = 0.1000 0.0000 0.0000 (  2927 PWs)   bands (ev):

   -49.3777 -21.3009 -21.3005 -21.3005 -12.9959  -0.8589  -0.8281  -0.8281
     4.3348  10.4329  10.5505  10.5505  11.9649  12.2336  14.9482  15.0530

          k = 0.1333 0.0000 0.0000 (  2934 PWs)   bands (ev):

   -49.3777 -21.3015 -21.3006 -21.3006 -12.9917  -0.8882  -0.8345  -0.8345
     4.3997  10.3681  10.5737  10.5737  11.8014  12.2594  14.9632  15.0997

          k = 0.1667 0.0000 0.0000 (  2938 PWs)   bands (ev):

   -49.3777 -21.3020 -21.3007 -21.3007 -12.9864  -0.9243  -0.8426  -0.8426
     4.4810  10.2890  10.6034  10.6034  11.6113  12.2924  15.0005  15.1586

          k = 0.2000 0.0000 0.0000 (  2938 PWs)   bands (ev):

   -49.3777 -21.3025 -21.3009 -21.3009 -12.9800  -0.9663  -0.8522  -0.8522
     4.5775  10.1983  10.6397  10.6397  11.4038  12.3325  15.0573  15.2290

          k = 0.2333 0.0000 0.0000 (  2938 PWs)   bands (ev):

   -49.3777 -21.3031 -21.3011 -21.3011 -12.9727  -1.0132  -0.8634  -0.8634
     4.6874  10.0978  10.6827  10.6827  11.1865  12.3798  15.1304  15.3098

          k = 0.2667 0.0000 0.0000 (  2938 PWs)   bands (ev):

   -49.3777 -21.3039 -21.3013 -21.3013 -12.9644  -1.0640  -0.8758  -0.8758
     4.8089   9.9899  10.7322  10.7322  10.9658  12.4341  15.2167  15.3996

          k = 0.3000 0.0000 0.0000 (  2930 PWs)   bands (ev):

   -49.3776 -21.3047 -21.3014 -21.3014 -12.9553  -1.1175  -0.8894  -0.8894
     4.9401   9.8764  10.7472  10.7884  10.7884  12.4953  15.3140  15.4965

          k = 0.3333 0.0000 0.0000 (  2922 PWs)   bands (ev):

   -49.3776 -21.3055 -21.3015 -21.3015 -12.9454  -1.1730  -0.9040  -0.9040
     5.0789   9.7589  10.5352  10.8511  10.8511  12.5631  15.4202  15.5980

          k = 0.3667 0.0000 0.0000 (  2934 PWs)   bands (ev):

   -49.3776 -21.3066 -21.3018 -21.3018 -12.9350  -1.2294  -0.9194  -0.9194
     5.2229   9.6385  10.3339  10.9198  10.9198  12.6374  15.5336  15.7009

          k = 0.4000 0.0000 0.0000 (  2934 PWs)   bands (ev):

   -49.3776 -21.3076 -21.3021 -21.3021 -12.9240  -1.2860  -0.9355  -0.9355
     5.3695   9.5168  10.1472  10.9950  10.9950  12.7180  15.6524  15.8011

          k = 0.4333 0.0000 0.0000 (  2926 PWs)   bands (ev):

   -49.3776 -21.3086 -21.3022 -21.3022 -12.9127  -1.3421  -0.9520  -0.9520
     5.5160   9.3947   9.9784  11.0765  11.0765  12.8045  15.7746  15.8934

          k = 0.4667 0.0000 0.0000 (  2910 PWs)   bands (ev):

   -49.3775 -21.3096 -21.3022 -21.3022 -12.9010  -1.3971  -0.9688  -0.9688
     5.6591   9.2738   9.8303  11.1644  11.1644  12.8967  15.8976  15.9715

          k = 0.5000 0.0000 0.0000 (  2906 PWs)   bands (ev):

   -49.3775 -21.3106 -21.3025 -21.3025 -12.8893  -1.4503  -0.9856  -0.9856
     5.7954   9.1561   9.7054  11.2578  11.2578  12.9942  16.0174  16.0283

          k = 0.5333 0.0000 0.0000 (  2922 PWs)   bands (ev):

   -49.3775 -21.3119 -21.3028 -21.3028 -12.8775  -1.5015  -1.0024  -1.0024
     5.9211   9.0437   9.6052  11.3566  11.3566  13.0963  16.0570  16.0570

          k = 0.5667 0.0000 0.0000 (  2926 PWs)   bands (ev):

   -49.3775 -21.3130 -21.3031 -21.3031 -12.8658  -1.5501  -1.0189  -1.0189
     6.0327   8.9390   9.5320  11.4609  11.4609  13.2025  16.0524  16.0524

          k = 0.6000 0.0000 0.0000 (  2934 PWs)   bands (ev):

   -49.3775 -21.3142 -21.3034 -21.3034 -12.8544  -1.5958  -1.0349  -1.0349
     6.1268   8.8431   9.4871  11.5703  11.5703  13.3122  16.0123  16.0123

          k = 0.6333 0.0000 0.0000 (  2942 PWs)   bands (ev):

   -49.3775 -21.3152 -21.3038 -21.3038 -12.8433  -1.6385  -1.0503  -1.0503
     6.2014   8.7567   9.4719  11.6841  11.6841  13.4244  15.9385  15.9385

          k = 0.6667 0.0000 0.0000 (  2950 PWs)   bands (ev):

   -49.3775 -21.3161 -21.3041 -21.3041 -12.8328  -1.6779  -1.0649  -1.0649
     6.2556   8.6793   9.4867  11.8017  11.8017  13.5380  15.8357  15.8357

          k = 0.7000 0.0000 0.0000 (  2942 PWs)   bands (ev):

   -49.3774 -21.3169 -21.3043 -21.3043 -12.8228  -1.7138  -1.0786  -1.0786
     6.2903   8.6103   9.5299  11.9227  11.9227  13.6518  15.7106  15.7106

          k = 0.7333 0.0000 0.0000 (  2946 PWs)   bands (ev):

   -49.3774 -21.3178 -21.3045 -21.3045 -12.8136  -1.7461  -1.0912  -1.0912
     6.3079   8.5489   9.5979  12.0456  12.0456  13.7642  15.5703  15.5703

          k = 0.7667 0.0000 0.0000 (  2946 PWs)   bands (ev):

   -49.3774 -21.3185 -21.3047 -21.3047 -12.8052  -1.7747  -1.1026  -1.1026
     6.3120   8.4948   9.6852  12.1690  12.1690  13.8732  15.4216  15.4216

          k = 0.8000 0.0000 0.0000 (  2946 PWs)   bands (ev):

   -49.3774 -21.3192 -21.3049 -21.3049 -12.7977  -1.7996  -1.1127  -1.1127
     6.3067   8.4476   9.7849  12.2908  12.2908  13.9766  15.2708  15.2708

          k = 0.8333 0.0000 0.0000 (  2954 PWs)   bands (ev):

   -49.3774 -21.3198 -21.3051 -21.3051 -12.7912  -1.8208  -1.1214  -1.1214
     6.2954   8.4075   9.8896  12.4083  12.4083  14.0718  15.1241  15.1241

          k = 0.8667 0.0000 0.0000 (  2966 PWs)   bands (ev):

   -49.3774 -21.3204 -21.3053 -21.3053 -12.7858  -1.8381  -1.1287  -1.1287
     6.2817   8.3744   9.9909  12.5175  12.5175  14.1559  14.9879  14.9879

          k = 0.9000 0.0000 0.0000 (  2966 PWs)   bands (ev):

   -49.3774 -21.3207 -21.3054 -21.3054 -12.7815  -1.8515  -1.1344  -1.1344
     6.2683   8.3485  10.0809  12.6136  12.6136  14.2257  14.8693  14.8693

          k = 0.9333 0.0000 0.0000 (  2962 PWs)   bands (ev):

   -49.3774 -21.3209 -21.3055 -21.3055 -12.7785  -1.8612  -1.1385  -1.1385
     6.2574   8.3300  10.1520  12.6901  12.6901  14.2783  14.7760  14.7760

          k = 0.9667 0.0000 0.0000 (  2954 PWs)   bands (ev):

   -49.3774 -21.3209 -21.3055 -21.3055 -12.7766  -1.8669  -1.1410  -1.1410
     6.2504   8.3188  10.1976  12.7399  12.7399  14.3111  14.7159  14.7159

          k = 1.0000 0.0000 0.0000 (  2954 PWs)   bands (ev):

   -49.3774 -21.3210 -21.3055 -21.3055 -12.7760  -1.8688  -1.1418  -1.1418
     6.2479   8.3151  10.2133  12.7573  12.7573  14.3222  14.6949  14.6949

          k = 1.0050-0.0300 0.0300 (  2954 PWs)   bands (ev):

   -49.3774 -21.3210 -21.3055 -21.3055 -12.7760  -1.8659  -1.1475  -1.1406
     6.2592   8.3221  10.2047  12.7079  12.7150  14.3800  14.6756  14.7081

          k = 1.0100-0.0600 0.0600 (  2961 PWs)   bands (ev):

   -49.3774 -21.3209 -21.3058 -21.3055 -12.7760  -1.8573  -1.1644  -1.1370
     6.2926   8.3422  10.1792  12.5777  12.6020  14.5333  14.6202  14.7452

          k = 1.0150-0.0900 0.0900 (  2959 PWs)   bands (ev):

   -49.3774 -21.3207 -21.3059 -21.3054 -12.7761  -1.8430  -1.1915  -1.1310
     6.3473   8.3730  10.1384  12.4007  12.4483  14.5240  14.7566  14.8042

          k = 1.0200-0.1200 0.1200 (  2947 PWs)   bands (ev):

   -49.3774 -21.3204 -21.3061 -21.3051 -12.7763  -1.8233  -1.2273  -1.1227
     6.4217   8.4100  10.0841  12.2025  12.2829  14.4030  14.8828  15.0129

          k = 1.0250-0.1500 0.1500 (  2950 PWs)   bands (ev):

   -49.3774 -21.3202 -21.3065 -21.3050 -12.7768  -1.7985  -1.2701  -1.1124
     6.5140   8.4467  10.0189  11.9978  12.1290  14.2570  14.9775  15.2917

          k = 1.0300-0.1800 0.1800 (  2951 PWs)   bands (ev):

   -49.3774 -21.3199 -21.3070 -21.3048 -12.7775  -1.7693  -1.3177  -1.1001
     6.6222   8.4746   9.9453  11.7953  12.0058  14.0921  15.0844  15.5834

          k = 1.0350-0.2100 0.2100 (  2955 PWs)   bands (ev):

   -49.3774 -21.3196 -21.3073 -21.3047 -12.7786  -1.7364  -1.3674  -1.0861
     6.7441   8.4839   9.8661  11.6000  11.9296  13.9135  15.1990  15.8820

          k = 1.0400-0.2400 0.2400 (  2958 PWs)   bands (ev):

   -49.3774 -21.3192 -21.3077 -21.3045 -12.7803  -1.7013  -1.4162  -1.0707
     6.8775   8.4655   9.7841  11.4154  11.9132  13.7256  15.3149  16.1331

          k = 1.0450-0.2700 0.2700 (  2961 PWs)   bands (ev):

   -49.3774 -21.3190 -21.3080 -21.3043 -12.7826  -1.6671  -1.4593  -1.0541
     7.0200   8.4137   9.7026  11.2436  11.9645  13.5325  15.4235  16.2217

          k = 1.0500-0.3000 0.3000 (  2954 PWs)   bands (ev):

   -49.3774 -21.3186 -21.3081 -21.3040 -12.7857  -1.6413  -1.4878  -1.0366
     7.1683   8.3284   9.6249  11.0864  12.0853  13.3373  15.5116  16.2665

          k = 1.0483-0.3233 0.3233 (  2959 PWs)   bands (ev):

   -49.3774 -21.3184 -21.3081 -21.3039 -12.7886  -1.6301  -1.4972  -1.0228
     7.2819   8.2478   9.5690  10.9803  12.2186  13.1767  15.5820  16.2557

          k = 1.0467-0.3467 0.3467 (  2959 PWs)   bands (ev):

   -49.3774 -21.3182 -21.3081 -21.3037 -12.7920  -1.6335  -1.4870  -1.0088
     7.3883   8.1620   9.5155  10.8845  12.3888  13.0168  15.6181  16.2428

          k = 1.0450-0.3700 0.3700 (  2957 PWs)   bands (ev):

   -49.3774 -21.3179 -21.3079 -21.3035 -12.7961  -1.6460  -1.4623  -0.9947
     7.4722   8.0887   9.4662  10.7993  12.5916  12.8587  15.6041  16.2400

          k = 1.0433-0.3933 0.3933 (  2961 PWs)   bands (ev):

   -49.3774 -21.3177 -21.3078 -21.3033 -12.8009  -1.6603  -1.4303  -0.9806
     7.5030   8.0607   9.4225  10.7253  12.7029  12.8223  15.5324  16.2376

          k = 1.0417-0.4167 0.4167 (  2963 PWs)   bands (ev):

   -49.3775 -21.3174 -21.3075 -21.3032 -12.8064  -1.6724  -1.3947  -0.9666
     7.4562   8.1048   9.3856  10.6626  12.5501  13.0761  15.4071  16.1755

          k = 1.0400-0.4400 0.4400 (  2959 PWs)   bands (ev):

   -49.3775 -21.3171 -21.3072 -21.3030 -12.8126  -1.6803  -1.3573  -0.9530
     7.3495   8.2054   9.3566  10.6117  12.4011  13.3480  15.2356  16.0313

          k = 1.0383-0.4633 0.4633 (  2961 PWs)   bands (ev):

   -49.3775 -21.3167 -21.3068 -21.3028 -12.8195  -1.6830  -1.3192  -0.9397
     7.2108   8.3358   9.3363  10.5727  12.2561  13.6318  15.0264  15.8792

          k = 1.0367-0.4867 0.4867 (  2965 PWs)   bands (ev):

   -49.3775 -21.3163 -21.3065 -21.3026 -12.8271  -1.6801  -1.2809  -0.9270
     7.0556   8.4817   9.3255  10.5458  12.1157  13.9191  14.7899  15.7502

          k = 1.0350-0.5100 0.5100 (  2959 PWs)   bands (ev):

   -49.3775 -21.3157 -21.3060 -21.3024 -12.8354  -1.6711  -1.2429  -0.9149
     6.8914   8.6363   9.3248  10.5312  11.9802  14.1967  14.5374  15.6554

          k = 1.0333-0.5333 0.5333 (  2952 PWs)   bands (ev):

   -49.3775 -21.3150 -21.3055 -21.3022 -12.8442  -1.6560  -1.2055  -0.9034
     6.7221   8.7957   9.3353  10.5290  11.8499  14.2764  14.4428  15.6090

          k = 1.0317-0.5567 0.5567 (  2946 PWs)   bands (ev):

   -49.3775 -21.3143 -21.3051 -21.3020 -12.8536  -1.6347  -1.1691  -0.8927
     6.5498   8.9561   9.3586  10.5390  11.7251  14.0165  14.6192  15.6316

          k = 1.0300-0.5800 0.5800 (  2949 PWs)   bands (ev):

   -49.3775 -21.3136 -21.3047 -21.3018 -12.8635  -1.6073  -1.1339  -0.8827
     6.3764   9.1119   9.3988  10.5613  11.6060  13.7606  14.7039  15.7200

          k = 1.0283-0.6033 0.6033 (  2948 PWs)   bands (ev):

   -49.3775 -21.3128 -21.3043 -21.3017 -12.8737  -1.5741  -1.1001  -0.8737
     6.2029   9.2514   9.4661  10.5956  11.4930  13.5129  14.7141  15.8124

          k = 1.0267-0.6267 0.6267 (  2950 PWs)   bands (ev):

   -49.3776 -21.3120 -21.3039 -21.3016 -12.8843  -1.5353  -1.0679  -0.8654
     6.0305   9.3589   9.5743  10.6417  11.3863  13.2766  14.6848  15.8456

          k = 1.0250-0.6500 0.6500 (  2949 PWs)   bands (ev):

   -49.3776 -21.3110 -21.3035 -21.3014 -12.8950  -1.4913  -1.0375  -0.8580
     5.8600   9.4409   9.7145  10.6989  11.2865  13.0543  14.6400  15.8221

          k = 1.0233-0.6733 0.6733 (  2947 PWs)   bands (ev):

   -49.3776 -21.3100 -21.3031 -21.3013 -12.9058  -1.4428  -1.0089  -0.8514
     5.6923   9.5157   9.8657  10.7659  11.1947  12.8486  14.5920  15.7675

          k = 1.0217-0.6967 0.6967 (  2942 PWs)   bands (ev):

   -49.3776 -21.3090 -21.3028 -21.3012 -12.9166  -1.3903  -0.9822  -0.8456
     5.5283   9.5924  10.0155  10.8389  11.1145  12.6623  14.5475  15.6983

          k = 1.0200-0.7200 0.7200 (  2942 PWs)   bands (ev):

   -49.3776 -21.3079 -21.3025 -21.3012 -12.9271  -1.3345  -0.9576  -0.8406
     5.3689   9.6733  10.1568  10.9001  11.0629  12.4981  14.5104  15.6229

          k = 1.0183-0.7433 0.7433 (  2944 PWs)   bands (ev):

   -49.3776 -21.3069 -21.3021 -21.3011 -12.9374  -1.2765  -0.9350  -0.8363
     5.2151   9.7587  10.2840  10.8944  11.0945  12.3594  14.4834  15.5459

          k = 1.0167-0.7667 0.7667 (  2939 PWs)   bands (ev):

   -49.3776 -21.3060 -21.3017 -21.3010 -12.9473  -1.2170  -0.9145  -0.8326
     5.0680   9.8482  10.3920  10.8424  11.1882  12.2492  14.4687  15.4697

          k = 1.0150-0.7900 0.7900 (  2936 PWs)   bands (ev):

   -49.3777 -21.3050 -21.3015 -21.3009 -12.9567  -1.1572  -0.8961  -0.8296
     4.9287   9.9405  10.4762  10.7851  11.3015  12.1698  14.4680  15.3958

          k = 1.0133-0.8133 0.8133 (  2934 PWs)   bands (ev):

   -49.3777 -21.3041 -21.3012 -21.3008 -12.9654  -1.0984  -0.8798  -0.8271
     4.7985  10.0339  10.5342  10.7311  11.4244  12.1215  14.4827  15.3254

          k = 1.0117-0.8367 0.8367 (  2930 PWs)   bands (ev):

   -49.3777 -21.3033 -21.3010 -21.3006 -12.9734  -1.0419  -0.8655  -0.8251
     4.6788  10.1265  10.5667  10.6826  11.5527  12.1014  14.5136  15.2591

          k = 1.0100-0.8600 0.8600 (  2928 PWs)   bands (ev):

   -49.3777 -21.3026 -21.3008 -21.3005 -12.9805  -0.9889  -0.8532  -0.8234
     4.5710  10.2157  10.5778  10.6400  11.6830  12.1035  14.5610  15.1977

          k = 1.0083-0.8833 0.8833 (  2932 PWs)   bands (ev):

   -49.3777 -21.3021 -21.3006 -21.3004 -12.9867  -0.9409  -0.8429  -0.8222
     4.4765  10.2986  10.5739  10.6038  11.8112  12.1197  14.6239  15.1417

          k = 1.0067-0.9067 0.9067 (  2932 PWs)   bands (ev):

   -49.3777 -21.3016 -21.3005 -21.3004 -12.9919  -0.8994  -0.8345  -0.8212
     4.3968  10.3727  10.5615  10.5740  11.9322  12.1423  14.7005  15.0922

          k = 1.0050-0.9300 0.9300 (  2922 PWs)   bands (ev):

   -49.3777 -21.3010 -21.3004 -21.3003 -12.9960  -0.8655  -0.8280  -0.8205
     4.3332  10.4347  10.5466  10.5509  12.0395  12.1652  14.7871  15.0508

          k = 1.0033-0.9533 0.9533 (  2918 PWs)   bands (ev):

   -49.3777 -21.3007 -21.3003 -21.3002 -12.9989  -0.8404  -0.8234  -0.8201
     4.2869  10.4815  10.5333  10.5343  12.1251  12.1841  14.8770  15.0191

          k = 1.0017-0.9767 0.9767 (  2916 PWs)   bands (ev):

   -49.3777 -21.3005 -21.3002 -21.3002 -13.0007  -0.8249  -0.8206  -0.8198
     4.2587  10.5106  10.5242  10.5244  12.1810  12.1963  14.9562  14.9991

          k = 1.0000-1.0000 1.0000 (  2891 PWs)   bands (ev):

   -49.3776 -21.3000 -21.3000 -21.3000 -13.0013  -0.8197  -0.8197  -0.8197
     4.2493  10.5213  10.5213  10.5213  12.2005  12.2005  14.9923  14.9923

     highest occupied, lowest unoccupied level (ev):    -0.8197    4.2493

     Writing output data file ./tmp/NaCl.save/

     init_run     :      1.32s CPU      1.36s WALL (       1 calls)
     electrons    :    157.26s CPU    157.87s WALL (       1 calls)

     Called by init_run:
     wfcinit      :      0.00s CPU      0.00s WALL (       1 calls)
     potinit      :      0.36s CPU      0.37s WALL (       1 calls)
     hinit0       :      0.83s CPU      0.83s WALL (       1 calls)

     Called by electrons:
     c_bands      :    157.26s CPU    157.87s WALL (       1 calls)
     v_of_rho     :      0.06s CPU      0.07s WALL (       1 calls)
     newd         :      0.07s CPU      0.09s WALL (       1 calls)
     PAW_pot      :      0.29s CPU      0.29s WALL (       1 calls)

     Called by c_bands:
     init_us_2    :      0.09s CPU      0.11s WALL (      91 calls)
     cegterg      :    152.81s CPU    153.35s WALL (     295 calls)

     Called by *egterg:
     cdiaghg      :      1.93s CPU      1.94s WALL (    5309 calls)
     h_psi        :     96.32s CPU     96.74s WALL (    5604 calls)
     s_psi        :      7.29s CPU      7.32s WALL (    5604 calls)
     g_psi        :      1.84s CPU      1.84s WALL (    5218 calls)

     Called by h_psi:
     h_psi:calbec :      6.98s CPU      7.00s WALL (    5604 calls)
     vloc_psi     :     81.77s CPU     82.14s WALL (    5604 calls)
     add_vuspsi   :      7.28s CPU      7.30s WALL (    5604 calls)

     General routines
     calbec       :      6.95s CPU      6.97s WALL (    5604 calls)
     fft          :      0.03s CPU      0.03s WALL (      13 calls)
     ffts         :      0.01s CPU      0.01s WALL (       1 calls)
     fftw         :     74.03s CPU     74.39s WALL (   90664 calls)
     interpolate  :      0.01s CPU      0.01s WALL (       1 calls)
     davcio       :      0.04s CPU      0.06s WALL (     182 calls)

     Parallel routines

     PWSCF        :   2m38.97s CPU   2m39.69s WALL


   This run was terminated on:  21:53:53  11Nov2022            

=------------------------------------------------------------------------------=
   JOB DONE.
=------------------------------------------------------------------------------=
