
     Program PWSCF v.6.7MaX starts on 12Nov2022 at 14:32:52 

     This program is part of the open-source Quantum ESPRESSO suite
     for quantum simulation of materials; please cite
         "P. Giannozzi et al., J. Phys.:Condens. Matter 21 395502 (2009);
         "P. Giannozzi et al., J. Phys.:Condens. Matter 29 465901 (2017);
          URL http://www.quantum-espresso.org", 
     in publications or presentations arising from this work. More details at
     http://www.quantum-espresso.org/quote

     Parallel version (MPI), running on     1 processors

     MPI processes distributed on     1 nodes
     Waiting for input...
     Reading input from standard input
     Message from routine read_cards :
     DEPRECATED: no units specified in ATOMIC_POSITIONS card
     Message from routine read_cards :
     ATOMIC_POSITIONS: units set to alat

     Current dimensions of program PWSCF are:
     Max number of different atomic species (ntypx) = 10
     Max number of k-points (npk) =  40000
     Max angular momentum in pseudopotentials (lmaxx) =  3
     file Na.pbe-spn-kjpaw_psl.1.0.0.UPF: wavefunction(s)  2P renormalized
     file Cl.pbe-n-kjpaw_psl.1.0.0.UPF: wavefunction(s)  3S 3P renormalized

     Subspace diagonalization in iterative solution of the eigenvalue problem:
     a serial algorithm will be used


     G-vector sticks info
     --------------------
     sticks:   dense  smooth     PW     G-vecs:    dense   smooth      PW
     Sum         847     847    253                16361    16049    2685



     bravais-lattice index     =            2
     lattice parameter (alat)  =      10.0615  a.u.
     unit-cell volume          =     254.6394 (a.u.)^3
     number of atoms/cell      =            2
     number of atomic types    =            2
     number of electrons       =        16.00
     number of Kohn-Sham states=            8
     kinetic-energy cutoff     =      60.0000  Ry
     charge density cutoff     =     244.0000  Ry
     scf convergence threshold =      1.0E-08
     mixing beta               =       0.7000
     number of iterations used =            8  plain     mixing
     Exchange-correlation= SLA  PW   PBX  PBC
                           (   1   4   3   4   0   0   0)

     celldm(1)=  10.061480  celldm(2)=   0.000000  celldm(3)=   0.000000
     celldm(4)=   0.000000  celldm(5)=   0.000000  celldm(6)=   0.000000

     crystal axes: (cart. coord. in units of alat)
               a(1) = (  -0.500000   0.000000   0.500000 )  
               a(2) = (   0.000000   0.500000   0.500000 )  
               a(3) = (  -0.500000   0.500000   0.000000 )  

     reciprocal axes: (cart. coord. in units 2 pi/alat)
               b(1) = ( -1.000000 -1.000000  1.000000 )  
               b(2) = (  1.000000  1.000000  1.000000 )  
               b(3) = ( -1.000000  1.000000 -1.000000 )  


     PseudoPot. # 1 for Na read from file:
     ../../pseudopotentials/Na.pbe-spn-kjpaw_psl.1.0.0.UPF
     MD5 check sum: 2d3bf706d6c1b56787a12f8ec1fa0108
     Pseudo is Projector augmented-wave + core cor, Zval =  9.0
     Generated using &quot;atomic&quot; code by A. Dal Corso  v.6.3
     Shape of augmentation charge: PSQ
     Using radial grid of 1121 points,  4 beta functions with: 
                l(1) =   0
                l(2) =   0
                l(3) =   1
                l(4) =   1
     Q(r) pseudized with 0 coefficients 


     PseudoPot. # 2 for Cl read from file:
     ../../pseudopotentials/Cl.pbe-n-kjpaw_psl.1.0.0.UPF
     MD5 check sum: 742572be94a3d2fc30b29275f2c5bbd2
     Pseudo is Projector augmented-wave + core cor, Zval =  7.0
     Generated using &quot;atomic&quot; code by A. Dal Corso  v.6.3
     Shape of augmentation charge: PSQ
     Using radial grid of 1157 points,  6 beta functions with: 
                l(1) =   0
                l(2) =   0
                l(3) =   1
                l(4) =   1
                l(5) =   2
                l(6) =   2
     Q(r) pseudized with 0 coefficients 


     atomic species   valence    mass     pseudopotential
        Na             9.00    22.98977     Na( 1.00)
        Cl             7.00    35.45320     Cl( 1.00)

     48 Sym. Ops., with inversion, found



   Cartesian axes

     site n.     atom                  positions (alat units)
         1           Na  tau(   1) = (   0.0000000   0.0000000   0.0000000  )
         2           Cl  tau(   2) = (   0.5000000   0.0000000   0.0000000  )

     number of k points=    20
                       cart. coord. in units 2pi/alat
        k(    1) = (   0.0000000   0.0000000   0.0000000), wk =   0.0058309
        k(    2) = (  -0.1428571   0.1428571  -0.1428571), wk =   0.0466472
        k(    3) = (  -0.2857143   0.2857143  -0.2857143), wk =   0.0466472
        k(    4) = (  -0.4285714   0.4285714  -0.4285714), wk =   0.0466472
        k(    5) = (   0.0000000   0.2857143   0.0000000), wk =   0.0349854
        k(    6) = (  -0.1428571   0.4285714  -0.1428571), wk =   0.1399417
        k(    7) = (  -0.2857143   0.5714286  -0.2857143), wk =   0.1399417
        k(    8) = (   0.5714286  -0.2857143   0.5714286), wk =   0.1399417
        k(    9) = (   0.4285714  -0.1428571   0.4285714), wk =   0.1399417
        k(   10) = (   0.2857143  -0.0000000   0.2857143), wk =   0.0699708
        k(   11) = (   0.0000000   0.5714286   0.0000000), wk =   0.0349854
        k(   12) = (  -0.1428571   0.7142857  -0.1428571), wk =   0.1399417
        k(   13) = (   0.7142857  -0.1428571   0.7142857), wk =   0.1399417
        k(   14) = (   0.5714286   0.0000000   0.5714286), wk =   0.0699708
        k(   15) = (   0.0000000   0.8571429   0.0000000), wk =   0.0349854
        k(   16) = (   0.8571429  -0.0000000   0.8571429), wk =   0.0699708
        k(   17) = (  -0.2857143   0.5714286   0.0000000), wk =   0.1399417
        k(   18) = (   0.5714286  -0.2857143   0.8571429), wk =   0.2798834
        k(   19) = (   0.7142857  -0.1428571   1.0000000), wk =   0.1399417
        k(   20) = (   0.5714286   0.0000000   0.8571429), wk =   0.1399417

     Dense  grid:    16361 G-vectors     FFT dimensions: (  36,  36,  36)

     Smooth grid:    16049 G-vectors     FFT dimensions: (  36,  36,  36)

     Estimated max dynamical RAM per process >      65.61 MB

     Check: negative core charge=   -0.000007

     Initial potential from superposition of free atoms

     starting charge   15.99370, renormalised to   16.00000
     Starting wfcs are    9 randomized atomic wfcs
     Checking if some PAW data can be deallocated... 

     total cpu time spent up to now is        1.9 secs

     Self-consistent Calculation

     iteration #  1     ecut=    60.00 Ry     beta= 0.70
     Davidson diagonalization with overlap
     ethr =  1.00E-02,  avg # of iterations =  1.0

     Threshold (ethr) on eigenvalues was too large:
     Diagonalizing with lowered threshold

     Davidson diagonalization with overlap
     ethr =  3.70E-04,  avg # of iterations =  3.2

     total cpu time spent up to now is        4.6 secs

     total energy              =    -188.81573986 Ry
     estimated scf accuracy    <       0.04660967 Ry

     iteration #  2     ecut=    60.00 Ry     beta= 0.70
     Davidson diagonalization with overlap
     ethr =  2.91E-04,  avg # of iterations =  2.3

     total cpu time spent up to now is        6.2 secs

     total energy              =    -188.83008160 Ry
     estimated scf accuracy    <       0.00772864 Ry

     iteration #  3     ecut=    60.00 Ry     beta= 0.70
     Davidson diagonalization with overlap
     ethr =  4.83E-05,  avg # of iterations =  2.0

     total cpu time spent up to now is        7.7 secs

     total energy              =    -188.83141747 Ry
     estimated scf accuracy    <       0.00033389 Ry

     iteration #  4     ecut=    60.00 Ry     beta= 0.70
     Davidson diagonalization with overlap
     ethr =  2.09E-06,  avg # of iterations =  3.5

     total cpu time spent up to now is        9.6 secs

     total energy              =    -188.83172486 Ry
     estimated scf accuracy    <       0.00022627 Ry

     iteration #  5     ecut=    60.00 Ry     beta= 0.70
     Davidson diagonalization with overlap
     ethr =  1.41E-06,  avg # of iterations =  2.0

     total cpu time spent up to now is       11.1 secs

     total energy              =    -188.83173304 Ry
     estimated scf accuracy    <       0.00002509 Ry

     iteration #  6     ecut=    60.00 Ry     beta= 0.70
     Davidson diagonalization with overlap
     ethr =  1.57E-07,  avg # of iterations =  3.5

     total cpu time spent up to now is       12.9 secs

     total energy              =    -188.83174747 Ry
     estimated scf accuracy    <       0.00000826 Ry

     iteration #  7     ecut=    60.00 Ry     beta= 0.70
     Davidson diagonalization with overlap
     ethr =  5.16E-08,  avg # of iterations =  2.0

     total cpu time spent up to now is       14.5 secs

     total energy              =    -188.83174733 Ry
     estimated scf accuracy    <       0.00000187 Ry

     iteration #  8     ecut=    60.00 Ry     beta= 0.70
     Davidson diagonalization with overlap
     ethr =  1.17E-08,  avg # of iterations =  3.1

     total cpu time spent up to now is       16.2 secs

     total energy              =    -188.83174811 Ry
     estimated scf accuracy    <       0.00000002 Ry

     iteration #  9     ecut=    60.00 Ry     beta= 0.70
     Davidson diagonalization with overlap
     ethr =  1.51E-10,  avg # of iterations =  7.7

     total cpu time spent up to now is       19.0 secs

     total energy              =    -188.83174816 Ry
     estimated scf accuracy    <       0.00000002 Ry

     iteration # 10     ecut=    60.00 Ry     beta= 0.70
     Davidson diagonalization with overlap
     ethr =  1.18E-10,  avg # of iterations =  2.0

     total cpu time spent up to now is       20.6 secs

     End of self-consistent calculation

          k = 0.0000 0.0000 0.0000 (  1989 PWs)   bands (ev):

   -46.2389 -18.1539 -18.1539 -18.1539 -10.7027   2.4146   2.4146   2.4146

          k =-0.1429 0.1429-0.1429 (  1995 PWs)   bands (ev):

   -46.2385 -18.1666 -18.1547 -18.1547 -10.6050   1.8129   2.3387   2.3387

          k =-0.2857 0.2857-0.2857 (  1994 PWs)   bands (ev):

   -46.2377 -18.1942 -18.1564 -18.1564 -10.3748   0.7346   2.1765   2.1765

          k =-0.4286 0.4286-0.4286 (  2012 PWs)   bands (ev):

   -46.2370 -18.2164 -18.1580 -18.1580 -10.1775   0.0080   2.0538   2.0538

          k = 0.0000 0.2857 0.0000 (  2009 PWs)   bands (ev):

   -46.2385 -18.1658 -18.1573 -18.1573 -10.5766   1.7794   2.2463   2.2463

          k =-0.1429 0.4286-0.1429 (  1999 PWs)   bands (ev):

   -46.2377 -18.1851 -18.1598 -18.1587 -10.3997   1.0081   2.0656   2.0795

          k =-0.2857 0.5714-0.2857 (  1988 PWs)   bands (ev):

   -46.2369 -18.2061 -18.1616 -18.1606 -10.1975   0.2828   1.8232   1.9650

          k = 0.5714-0.2857 0.5714 (  1991 PWs)   bands (ev):

   -46.2367 -18.2127 -18.1646 -18.1591 -10.1297   0.0758   1.6813   1.9793

          k = 0.4286-0.1429 0.4286 (  1994 PWs)   bands (ev):

   -46.2372 -18.2007 -18.1648 -18.1564 -10.2549   0.4905   1.7505   2.1139

          k = 0.2857-0.0000 0.2857 (  1985 PWs)   bands (ev):

   -46.2379 -18.1798 -18.1605 -18.1542 -10.4668   1.2455   2.0405   2.2766

          k = 0.0000 0.5714 0.0000 (  2008 PWs)   bands (ev):

   -46.2373 -18.1857 -18.1642 -18.1642 -10.3119   0.8172   1.9074   1.9074

          k =-0.1429 0.7143-0.1429 (  2015 PWs)   bands (ev):

   -46.2367 -18.1949 -18.1694 -18.1663 -10.1732   0.4732   1.5905   1.7912

          k = 0.7143-0.1429 0.7143 (  1999 PWs)   bands (ev):

   -46.2364 -18.1978 -18.1779 -18.1644 -10.0888   0.4422   1.1038   1.8073

          k = 0.5714 0.0000 0.5714 (  1999 PWs)   bands (ev):

   -46.2366 -18.1990 -18.1775 -18.1600 -10.1265   0.5037   1.1068   1.9464

          k = 0.0000 0.8571 0.0000 (  2004 PWs)   bands (ev):

   -46.2364 -18.1951 -18.1698 -18.1698 -10.1224   0.3108   1.6665   1.6665

          k = 0.8571-0.0000 0.8571 (  2010 PWs)   bands (ev):

   -46.2363 -18.1936 -18.1767 -18.1692 -10.0849   0.3580   1.3474   1.6731

          k =-0.2857 0.5714 0.0000 (  2012 PWs)   bands (ev):

   -46.2371 -18.1944 -18.1684 -18.1603 -10.2444   0.6295   1.6320   1.9700

          k = 0.5714-0.2857 0.8571 (  1994 PWs)   bands (ev):

   -46.2365 -18.2012 -18.1729 -18.1633 -10.1147   0.3841   1.3054   1.8125

          k = 0.7143-0.1429 1.0000 (  1998 PWs)   bands (ev):

   -46.2363 -18.1931 -18.1744 -18.1710 -10.0945   0.4573   1.3458   1.5680

          k = 0.5714 0.0000 0.8571 (  1985 PWs)   bands (ev):

   -46.2362 -18.1872 -18.1848 -18.1694 -10.0685   0.7515   0.8331   1.5856

     highest occupied level (ev):     2.4146

!    total energy              =    -188.83174817 Ry

     total all-electron energy =     -1248.118763 Ry
     estimated scf accuracy    <          1.0E-10 Ry

     The total energy is the sum of the following terms:
     one-electron contribution =     -74.35630546 Ry
     hartree contribution      =      44.76502122 Ry
     xc contribution           =     -25.75008093 Ry
     ewald contribution        =     -72.88573979 Ry
     one-center paw contrib.   =     -60.60464320 Ry

     convergence has been achieved in  10 iterations

     Writing output data file ./tmp/NaCl.save/

     init_run     :      1.62s CPU      1.66s WALL (       1 calls)
     electrons    :     18.19s CPU     18.67s WALL (       1 calls)

     Called by init_run:
     wfcinit      :      0.39s CPU      0.40s WALL (       1 calls)
     potinit      :      0.34s CPU      0.34s WALL (       1 calls)
     hinit0       :      0.83s CPU      0.83s WALL (       1 calls)

     Called by electrons:
     c_bands      :     12.25s CPU     12.33s WALL (      11 calls)
     sum_band     :      2.33s CPU      2.53s WALL (      11 calls)
     v_of_rho     :      0.34s CPU      0.35s WALL (      11 calls)
     newd         :      0.42s CPU      0.62s WALL (      11 calls)
     PAW_pot      :      3.14s CPU      3.14s WALL (      11 calls)
     mix_rho      :      0.05s CPU      0.05s WALL (      11 calls)

     Called by c_bands:
     init_us_2    :      0.42s CPU      0.43s WALL (     460 calls)
     cegterg      :     11.25s CPU     11.32s WALL (     220 calls)

     Called by *egterg:
     cdiaghg      :      0.09s CPU      0.09s WALL (     848 calls)
     h_psi        :      8.75s CPU      8.80s WALL (     888 calls)
     s_psi        :      0.73s CPU      0.73s WALL (     888 calls)
     g_psi        :      0.14s CPU      0.14s WALL (     648 calls)

     Called by h_psi:
     h_psi:calbec :      0.70s CPU      0.70s WALL (     888 calls)
     vloc_psi     :      7.29s CPU      7.33s WALL (     888 calls)
     add_vuspsi   :      0.73s CPU      0.74s WALL (     888 calls)

     General routines
     calbec       :      0.92s CPU      0.92s WALL (    1108 calls)
     fft          :      0.16s CPU      0.16s WALL (     142 calls)
     ffts         :      0.02s CPU      0.02s WALL (      22 calls)
     fftw         :      7.51s CPU      7.55s WALL (   12680 calls)
     interpolate  :      0.03s CPU      0.03s WALL (      11 calls)

     Parallel routines

     PWSCF        :     20.08s CPU     20.61s WALL


   This run was terminated on:  14:33:13  12Nov2022            

=------------------------------------------------------------------------------=
   JOB DONE.
=------------------------------------------------------------------------------=
