
     Program PWSCF v.6.7MaX starts on 12Nov2022 at 14:33:25 

     This program is part of the open-source Quantum ESPRESSO suite
     for quantum simulation of materials; please cite
         "P. Giannozzi et al., J. Phys.:Condens. Matter 21 395502 (2009);
         "P. Giannozzi et al., J. Phys.:Condens. Matter 29 465901 (2017);
          URL http://www.quantum-espresso.org", 
     in publications or presentations arising from this work. More details at
     http://www.quantum-espresso.org/quote

     Parallel version (MPI), running on     1 processors

     MPI processes distributed on     1 nodes
     Waiting for input...
     Reading input from standard input
     Message from routine read_cards :
     DEPRECATED: no units specified in ATOMIC_POSITIONS card
     Message from routine read_cards :
     ATOMIC_POSITIONS: units set to alat

     Current dimensions of program PWSCF are:
     Max number of different atomic species (ntypx) = 10
     Max number of k-points (npk) =  40000
     Max angular momentum in pseudopotentials (lmaxx) =  3

     Atomic positions and unit cell read from directory:
     ./tmp/NaCl.save/

     file Na.pbe-spn-kjpaw_psl.1.0.0.UPF: wavefunction(s)  2P renormalized
     file Cl.pbe-n-kjpaw_psl.1.0.0.UPF: wavefunction(s)  3S 3P renormalized

     Subspace diagonalization in iterative solution of the eigenvalue problem:
     a serial algorithm will be used


     G-vector sticks info
     --------------------
     sticks:   dense  smooth     PW     G-vecs:    dense   smooth      PW
     Sum         847     847    265                16361    16049    2891



     bravais-lattice index     =            2
     lattice parameter (alat)  =      10.0615  a.u.
     unit-cell volume          =     254.6394 (a.u.)^3
     number of atoms/cell      =            2
     number of atomic types    =            2
     number of electrons       =        16.00
     number of Kohn-Sham states=           16
     kinetic-energy cutoff     =      60.0000  Ry
     charge density cutoff     =     244.0000  Ry
     Exchange-correlation= SLA  PW   PBX  PBC
                           (   1   4   3   4   0   0   0)

     celldm(1)=  10.061480  celldm(2)=   0.000000  celldm(3)=   0.000000
     celldm(4)=   0.000000  celldm(5)=   0.000000  celldm(6)=   0.000000

     crystal axes: (cart. coord. in units of alat)
               a(1) = (  -0.500000   0.000000   0.500000 )  
               a(2) = (   0.000000   0.500000   0.500000 )  
               a(3) = (  -0.500000   0.500000   0.000000 )  

     reciprocal axes: (cart. coord. in units 2 pi/alat)
               b(1) = ( -1.000000 -1.000000  1.000000 )  
               b(2) = (  1.000000  1.000000  1.000000 )  
               b(3) = ( -1.000000  1.000000 -1.000000 )  


     PseudoPot. # 1 for Na read from file:
     ./Na.pbe-spn-kjpaw_psl.1.0.0.UPF
     MD5 check sum: 2d3bf706d6c1b56787a12f8ec1fa0108
     Pseudo is Projector augmented-wave + core cor, Zval =  9.0
     Generated using &quot;atomic&quot; code by A. Dal Corso  v.6.3
     Shape of augmentation charge: PSQ
     Using radial grid of 1121 points,  4 beta functions with: 
                l(1) =   0
                l(2) =   0
                l(3) =   1
                l(4) =   1
     Q(r) pseudized with 0 coefficients 


     PseudoPot. # 2 for Cl read from file:
     ./Cl.pbe-n-kjpaw_psl.1.0.0.UPF
     MD5 check sum: 742572be94a3d2fc30b29275f2c5bbd2
     Pseudo is Projector augmented-wave + core cor, Zval =  7.0
     Generated using &quot;atomic&quot; code by A. Dal Corso  v.6.3
     Shape of augmentation charge: PSQ
     Using radial grid of 1157 points,  6 beta functions with: 
                l(1) =   0
                l(2) =   0
                l(3) =   1
                l(4) =   1
                l(5) =   2
                l(6) =   2
     Q(r) pseudized with 0 coefficients 


     atomic species   valence    mass     pseudopotential
        Na             9.00    22.98977     Na( 1.00)
        Cl             7.00    35.45320     Cl( 1.00)

     48 Sym. Ops., with inversion, found



   Cartesian axes

     site n.     atom                  positions (alat units)
         1           Na  tau(   1) = (   0.0000000   0.0000000   0.0000000  )
         2           Cl  tau(   2) = (   0.5000000   0.0000000   0.0000000  )

     number of k points=    91
                       cart. coord. in units 2pi/alat
        k(    1) = (   0.5000000   0.5000000   0.5000000), wk =   0.0219780
        k(    2) = (   0.4750000   0.4750000   0.4750000), wk =   0.0219780
        k(    3) = (   0.4500000   0.4500000   0.4500000), wk =   0.0219780
        k(    4) = (   0.4250000   0.4250000   0.4250000), wk =   0.0219780
        k(    5) = (   0.4000000   0.4000000   0.4000000), wk =   0.0219780
        k(    6) = (   0.3750000   0.3750000   0.3750000), wk =   0.0219780
        k(    7) = (   0.3500000   0.3500000   0.3500000), wk =   0.0219780
        k(    8) = (   0.3250000   0.3250000   0.3250000), wk =   0.0219780
        k(    9) = (   0.3000000   0.3000000   0.3000000), wk =   0.0219780
        k(   10) = (   0.2750000   0.2750000   0.2750000), wk =   0.0219780
        k(   11) = (   0.2500000   0.2500000   0.2500000), wk =   0.0219780
        k(   12) = (   0.2250000   0.2250000   0.2250000), wk =   0.0219780
        k(   13) = (   0.2000000   0.2000000   0.2000000), wk =   0.0219780
        k(   14) = (   0.1750000   0.1750000   0.1750000), wk =   0.0219780
        k(   15) = (   0.1500000   0.1500000   0.1500000), wk =   0.0219780
        k(   16) = (   0.1250000   0.1250000   0.1250000), wk =   0.0219780
        k(   17) = (   0.1000000   0.1000000   0.1000000), wk =   0.0219780
        k(   18) = (   0.0750000   0.0750000   0.0750000), wk =   0.0219780
        k(   19) = (   0.0500000   0.0500000   0.0500000), wk =   0.0219780
        k(   20) = (   0.0250000   0.0250000   0.0250000), wk =   0.0219780
        k(   21) = (   0.0000000   0.0000000   0.0000000), wk =   0.0219780
        k(   22) = (   0.0333333   0.0000000   0.0000000), wk =   0.0219780
        k(   23) = (   0.0666667   0.0000000   0.0000000), wk =   0.0219780
        k(   24) = (   0.1000000   0.0000000   0.0000000), wk =   0.0219780
        k(   25) = (   0.1333333   0.0000000   0.0000000), wk =   0.0219780
        k(   26) = (   0.1666667   0.0000000   0.0000000), wk =   0.0219780
        k(   27) = (   0.2000000   0.0000000   0.0000000), wk =   0.0219780
        k(   28) = (   0.2333333   0.0000000   0.0000000), wk =   0.0219780
        k(   29) = (   0.2666667   0.0000000   0.0000000), wk =   0.0219780
        k(   30) = (   0.3000000   0.0000000   0.0000000), wk =   0.0219780
        k(   31) = (   0.3333333   0.0000000   0.0000000), wk =   0.0219780
        k(   32) = (   0.3666667   0.0000000   0.0000000), wk =   0.0219780
        k(   33) = (   0.4000000   0.0000000   0.0000000), wk =   0.0219780
        k(   34) = (   0.4333333   0.0000000   0.0000000), wk =   0.0219780
        k(   35) = (   0.4666667   0.0000000   0.0000000), wk =   0.0219780
        k(   36) = (   0.5000000   0.0000000   0.0000000), wk =   0.0219780
        k(   37) = (   0.5333333   0.0000000   0.0000000), wk =   0.0219780
        k(   38) = (   0.5666667   0.0000000   0.0000000), wk =   0.0219780
        k(   39) = (   0.6000000   0.0000000   0.0000000), wk =   0.0219780
        k(   40) = (   0.6333333   0.0000000   0.0000000), wk =   0.0219780
        k(   41) = (   0.6666667   0.0000000   0.0000000), wk =   0.0219780
        k(   42) = (   0.7000000   0.0000000   0.0000000), wk =   0.0219780
        k(   43) = (   0.7333333   0.0000000   0.0000000), wk =   0.0219780
        k(   44) = (   0.7666667   0.0000000   0.0000000), wk =   0.0219780
        k(   45) = (   0.8000000   0.0000000   0.0000000), wk =   0.0219780
        k(   46) = (   0.8333333   0.0000000   0.0000000), wk =   0.0219780
        k(   47) = (   0.8666667   0.0000000   0.0000000), wk =   0.0219780
        k(   48) = (   0.9000000   0.0000000   0.0000000), wk =   0.0219780
        k(   49) = (   0.9333333   0.0000000   0.0000000), wk =   0.0219780
        k(   50) = (   0.9666667   0.0000000   0.0000000), wk =   0.0219780
        k(   51) = (   1.0000000   0.0000000   0.0000000), wk =   0.0219780
        k(   52) = (   1.0050000  -0.0300000   0.0300000), wk =   0.0219780
        k(   53) = (   1.0100000  -0.0600000   0.0600000), wk =   0.0219780
        k(   54) = (   1.0150000  -0.0900000   0.0900000), wk =   0.0219780
        k(   55) = (   1.0200000  -0.1200000   0.1200000), wk =   0.0219780
        k(   56) = (   1.0250000  -0.1500000   0.1500000), wk =   0.0219780
        k(   57) = (   1.0300000  -0.1800000   0.1800000), wk =   0.0219780
        k(   58) = (   1.0350000  -0.2100000   0.2100000), wk =   0.0219780
        k(   59) = (   1.0400000  -0.2400000   0.2400000), wk =   0.0219780
        k(   60) = (   1.0450000  -0.2700000   0.2700000), wk =   0.0219780
        k(   61) = (   1.0500000  -0.3000000   0.3000000), wk =   0.0219780
        k(   62) = (   1.0483333  -0.3233333   0.3233333), wk =   0.0219780
        k(   63) = (   1.0466667  -0.3466667   0.3466667), wk =   0.0219780
        k(   64) = (   1.0450000  -0.3700000   0.3700000), wk =   0.0219780
        k(   65) = (   1.0433333  -0.3933333   0.3933333), wk =   0.0219780
        k(   66) = (   1.0416667  -0.4166667   0.4166667), wk =   0.0219780
        k(   67) = (   1.0400000  -0.4400000   0.4400000), wk =   0.0219780
        k(   68) = (   1.0383333  -0.4633333   0.4633333), wk =   0.0219780
        k(   69) = (   1.0366667  -0.4866667   0.4866667), wk =   0.0219780
        k(   70) = (   1.0350000  -0.5100000   0.5100000), wk =   0.0219780
        k(   71) = (   1.0333333  -0.5333333   0.5333333), wk =   0.0219780
        k(   72) = (   1.0316667  -0.5566667   0.5566667), wk =   0.0219780
        k(   73) = (   1.0300000  -0.5800000   0.5800000), wk =   0.0219780
        k(   74) = (   1.0283333  -0.6033333   0.6033333), wk =   0.0219780
        k(   75) = (   1.0266667  -0.6266667   0.6266667), wk =   0.0219780
        k(   76) = (   1.0250000  -0.6500000   0.6500000), wk =   0.0219780
        k(   77) = (   1.0233333  -0.6733333   0.6733333), wk =   0.0219780
        k(   78) = (   1.0216667  -0.6966667   0.6966667), wk =   0.0219780
        k(   79) = (   1.0200000  -0.7200000   0.7200000), wk =   0.0219780
        k(   80) = (   1.0183333  -0.7433333   0.7433333), wk =   0.0219780
        k(   81) = (   1.0166667  -0.7666667   0.7666667), wk =   0.0219780
        k(   82) = (   1.0150000  -0.7900000   0.7900000), wk =   0.0219780
        k(   83) = (   1.0133333  -0.8133333   0.8133333), wk =   0.0219780
        k(   84) = (   1.0116667  -0.8366667   0.8366667), wk =   0.0219780
        k(   85) = (   1.0100000  -0.8600000   0.8600000), wk =   0.0219780
        k(   86) = (   1.0083333  -0.8833333   0.8833333), wk =   0.0219780
        k(   87) = (   1.0066667  -0.9066667   0.9066667), wk =   0.0219780
        k(   88) = (   1.0050000  -0.9300000   0.9300000), wk =   0.0219780
        k(   89) = (   1.0033333  -0.9533333   0.9533333), wk =   0.0219780
        k(   90) = (   1.0016667  -0.9766667   0.9766667), wk =   0.0219780
        k(   91) = (   1.0000000  -1.0000000   1.0000000), wk =   0.0219780

     Dense  grid:    16361 G-vectors     FFT dimensions: (  36,  36,  36)

     Smooth grid:    16049 G-vectors     FFT dimensions: (  36,  36,  36)

     Estimated max dynamical RAM per process >      56.38 MB

     Check: negative core charge=   -0.000007

     The potential is recalculated from file :
     ./tmp/NaCl.save/charge-density

     Starting wfcs are    9 randomized atomic wfcs +    7 random wfcs
     Checking if some PAW data can be deallocated... 

     Band Structure Calculation
     Davidson diagonalization with overlap

     ethr =  6.25E-11,  avg # of iterations = 48.7

     total cpu time spent up to now is       95.5 secs

     End of band structure calculation

          k = 0.5000 0.5000 0.5000 (  2006 PWs)   bands (ev):

   -46.2371 -18.2196 -18.1582 -18.1582 -10.1476  -0.0918   2.0364   2.0364
     9.9634  13.6944  13.6944  14.5403  18.6456  18.8760  18.8760  20.9873

          k = 0.4750 0.4750 0.4750 (  2006 PWs)   bands (ev):

   -46.2371 -18.2193 -18.1582 -18.1582 -10.1513  -0.0794   2.0386   2.0386
     9.9658  13.6995  13.6995  14.5023  18.6539  18.7678  18.7678  21.1148

          k = 0.4500 0.4500 0.4500 (  2000 PWs)   bands (ev):

   -46.2371 -18.2179 -18.1581 -18.1581 -10.1624  -0.0426   2.0450   2.0450
     9.9729  13.7147  13.7147  14.3928  18.4998  18.4998  18.6798  21.4406

          k = 0.4250 0.4250 0.4250 (  2012 PWs)   bands (ev):

   -46.2372 -18.2162 -18.1581 -18.1581 -10.1804   0.0182   2.0556   2.0556
     9.9827  13.7390  13.7390  14.2235  18.1579  18.1579  18.7244  21.7448

          k = 0.4000 0.4000 0.4000 (  2000 PWs)   bands (ev):

   -46.2373 -18.2133 -18.1579 -18.1579 -10.2049   0.1020   2.0701   2.0701
     9.9938  13.7725  13.7725  14.0109  17.7929  17.7929  18.7895  22.0773

          k = 0.3750 0.3750 0.3750 (  2006 PWs)   bands (ev):

   -46.2374 -18.2103 -18.1577 -18.1577 -10.2351   0.2075   2.0883   2.0883
    10.0015  13.7731  13.8131  13.8131  17.4291  17.4291  18.8744  22.4655

          k = 0.3500 0.3500 0.3500 (  2006 PWs)   bands (ev):

   -46.2375 -18.2065 -18.1574 -18.1574 -10.2701   0.3332   2.1097   2.1097
    10.0012  13.5285  13.8588  13.8588  17.0796  17.0796  18.9778  22.8861

          k = 0.3250 0.3250 0.3250 (  2006 PWs)   bands (ev):

   -46.2376 -18.2022 -18.1572 -18.1572 -10.3088   0.4771   2.1340   2.1340
     9.9859  13.2951  13.9068  13.9068  16.7530  16.7530  19.0967  23.2831

          k = 0.3000 0.3000 0.3000 (  2006 PWs)   bands (ev):

   -46.2378 -18.1975 -18.1569 -18.1569 -10.3503   0.6370   2.1606   2.1606
     9.9472  13.0902  13.9529  13.9529  16.4567  16.4567  19.2270  23.4149

          k = 0.2750 0.2750 0.2750 (  1997 PWs)   bands (ev):

   -46.2379 -18.1922 -18.1566 -18.1566 -10.3933   0.8104   2.1888   2.1888
     9.8768  12.9293  13.9916  13.9916  16.1980  16.1980  19.3633  23.0258

          k = 0.2500 0.2500 0.2500 (  1997 PWs)   bands (ev):

   -46.2381 -18.1871 -18.1563 -18.1563 -10.4369   0.9943   2.2181   2.2181
     9.7689  12.8234  14.0156  14.0156  15.9844  15.9844  19.4933  22.4814

          k = 0.2250 0.2250 0.2250 (  1994 PWs)   bands (ev):

   -46.2382 -18.1819 -18.1559 -18.1559 -10.4799   1.1855   2.2478   2.2478
     9.6235  12.7772  14.0177  14.0177  15.8232  15.8232  19.6002  21.9531

          k = 0.2000 0.2000 0.2000 (  1994 PWs)   bands (ev):

   -46.2384 -18.1772 -18.1555 -18.1555 -10.5213   1.3800   2.2772   2.2772
     9.4464  12.7883  13.9931  13.9931  15.7185  15.7185  19.6481  21.5036

          k = 0.1750 0.1750 0.1750 (  1994 PWs)   bands (ev):

   -46.2385 -18.1724 -18.1552 -18.1552 -10.5601   1.5736   2.3053   2.3053
     9.2485  12.8487  13.9424  13.9424  15.6679  15.6679  19.5836  21.1960

          k = 0.1500 0.1500 0.1500 (  1995 PWs)   bands (ev):

   -46.2387 -18.1680 -18.1550 -18.1550 -10.5956   1.7612   2.3316   2.3316
     9.0424  12.9472  13.8728  13.8728  15.6621  15.6621  19.3740  21.0653

          k = 0.1250 0.1250 0.1250 (  1995 PWs)   bands (ev):

   -46.2388 -18.1640 -18.1547 -18.1547 -10.6269   1.9371   2.3553   2.3553
     8.8408  13.0713  13.7948  13.7948  15.6875  15.6875  19.0667  21.0674

          k = 0.1000 0.1000 0.1000 (  2004 PWs)   bands (ev):

   -46.2389 -18.1607 -18.1547 -18.1547 -10.6535   2.0950   2.3758   2.3758
     8.6556  13.2075  13.7185  13.7185  15.7300  15.7300  18.7361  21.1313

          k = 0.0750 0.0750 0.0750 (  2010 PWs)   bands (ev):

   -46.2391 -18.1581 -18.1546 -18.1546 -10.6747   2.2280   2.3924   2.3924
     8.4978  13.3406  13.6521  13.6521  15.7772  15.7772  18.4338  21.2106

          k = 0.0500 0.0500 0.0500 (  2001 PWs)   bands (ev):

   -46.2391 -18.1561 -18.1543 -18.1543 -10.6901   2.3293   2.4046   2.4046
     8.3771  13.4540  13.6012  13.6012  15.8189  15.8189  18.1929  21.2815

          k = 0.0250 0.0250 0.0250 (  1989 PWs)   bands (ev):

   -46.2391 -18.1545 -18.1542 -18.1542 -10.6995   2.3930   2.4121   2.4121
     8.3012  13.5310  13.5693  13.5693  15.8472  15.8472  18.0374  21.3304

          k = 0.0000 0.0000 0.0000 (  1989 PWs)   bands (ev):

   -46.2391 -18.1541 -18.1541 -18.1541 -10.7027   2.4146   2.4146   2.4146
     8.2752  13.5585  13.5585  13.5585  15.8571  15.8571  17.9835  21.3469

          k = 0.0333 0.0000 0.0000 (  1989 PWs)   bands (ev):

   -46.2391 -18.1543 -18.1542 -18.1542 -10.7008   2.4038   2.4121   2.4121
     8.2906  13.5373  13.5673  13.5673  15.8410  15.8613  18.0156  21.3542

          k = 0.0667 0.0000 0.0000 (  2005 PWs)   bands (ev):

   -46.2391 -18.1553 -18.1544 -18.1544 -10.6952   2.3718   2.4045   2.4045
     8.3363  13.4756  13.5938  13.5938  15.7933  15.8738  18.1099  21.3754

          k = 0.1000 0.0000 0.0000 (  2001 PWs)   bands (ev):

   -46.2391 -18.1559 -18.1547 -18.1547 -10.6860   2.3200   2.3920   2.3920
     8.4110  13.3783  13.6378  13.6378  15.7156  15.8944  18.2615  21.4114

          k = 0.1333 0.0000 0.0000 (  2017 PWs)   bands (ev):

   -46.2391 -18.1572 -18.1553 -18.1553 -10.6733   2.2504   2.3748   2.3748
     8.5123  13.2522  13.6989  13.6989  15.6105  15.9233  18.4635  21.4609

          k = 0.1667 0.0000 0.0000 (  2009 PWs)   bands (ev):

   -46.2390 -18.1587 -18.1555 -18.1555 -10.6573   2.1656   2.3533   2.3533
     8.6376  13.1043  13.7768  13.7768  15.4817  15.9602  18.7089  21.5267

          k = 0.2000 0.0000 0.0000 (  2017 PWs)   bands (ev):

   -46.2389 -18.1605 -18.1562 -18.1562 -10.6381   2.0682   2.3277   2.3277
     8.7837  12.9412  13.8708  13.8708  15.3327  16.0051  18.9910  21.6057

          k = 0.2333 0.0000 0.0000 (  2009 PWs)   bands (ev):

   -46.2388 -18.1625 -18.1566 -18.1566 -10.6161   1.9610   2.2985   2.2985
     8.9473  12.7682  13.9804  13.9804  15.1679  16.0577  19.3043  21.7003

          k = 0.2667 0.0000 0.0000 (  2009 PWs)   bands (ev):

   -46.2387 -18.1647 -18.1572 -18.1572 -10.5916   1.8469   2.2661   2.2661
     9.1251  12.5897  14.1049  14.1049  14.9913  16.1178  19.6441  21.8083

          k = 0.3000 0.0000 0.0000 (  2009 PWs)   bands (ev):

   -46.2386 -18.1670 -18.1578 -18.1578 -10.5648   1.7281   2.2311   2.2311
     9.3135  12.4092  14.2436  14.2436  14.8077  16.1852  20.0068  21.9299

          k = 0.3333 0.0000 0.0000 (  2001 PWs)   bands (ev):

   -46.2385 -18.1691 -18.1585 -18.1585 -10.5362   1.6071   2.1938   2.1938
     9.5090  12.2295  14.3956  14.3956  14.6219  16.2595  20.3894  22.0646

          k = 0.3667 0.0000 0.0000 (  2001 PWs)   bands (ev):

   -46.2383 -18.1716 -18.1593 -18.1593 -10.5061   1.4857   2.1548   2.1548
     9.7076  12.0525  14.4377  14.5602  14.5602  16.3404  20.7895  22.2109

          k = 0.4000 0.0000 0.0000 (  2001 PWs)   bands (ev):

   -46.2382 -18.1741 -18.1601 -18.1601 -10.4749   1.3657   2.1147   2.1147
     9.9052  11.8800  14.2606  14.7365  14.7365  16.4274  21.2050  22.3667

          k = 0.4333 0.0000 0.0000 (  2000 PWs)   bands (ev):

   -46.2380 -18.1768 -18.1608 -18.1608 -10.4430   1.2486   2.0739   2.0739
    10.0971  11.7130  14.0956  14.9239  14.9239  16.5201  21.6341  22.5290

          k = 0.4667 0.0000 0.0000 (  2000 PWs)   bands (ev):

   -46.2379 -18.1791 -18.1616 -18.1616 -10.4108   1.1356   2.0328   2.0328
    10.2775  11.5528  13.9505  15.1213  15.1213  16.6177  22.0752  22.6896

          k = 0.5000 0.0000 0.0000 (  1996 PWs)   bands (ev):

   -46.2377 -18.1813 -18.1624 -18.1624 -10.3787   1.0277   1.9921   1.9921
    10.4404  11.3999  13.8316  15.3281  15.3281  16.7197  22.5266  22.8363

          k = 0.5333 0.0000 0.0000 (  2008 PWs)   bands (ev):

   -46.2377 -18.1837 -18.1634 -18.1634 -10.3470   0.9257   1.9519   1.9519
    10.5788  11.2551  13.7455  15.5435  15.5435  16.8252  22.9431  22.9431

          k = 0.5667 0.0000 0.0000 (  2008 PWs)   bands (ev):

   -46.2375 -18.1856 -18.1643 -18.1643 -10.3162   0.8303   1.9129   1.9129
    10.6863  11.1189  13.7004  15.7670  15.7670  16.9334  22.9720  22.9720

          k = 0.6000 0.0000 0.0000 (  2000 PWs)   bands (ev):

   -46.2373 -18.1873 -18.1650 -18.1650 -10.2865   0.7419   1.8754   1.8754
    10.7586  10.9917  13.7003  15.9980  15.9980  17.0433  22.8881  22.8881

          k = 0.6333 0.0000 0.0000 (  2000 PWs)   bands (ev):

   -46.2372 -18.1889 -18.1658 -18.1658 -10.2582   0.6609   1.8396   1.8396
    10.7946  10.8737  13.7458  16.2357  16.2357  17.1536  22.6987  22.6987

          k = 0.6667 0.0000 0.0000 (  2000 PWs)   bands (ev):

   -46.2371 -18.1902 -18.1666 -18.1666 -10.2316   0.5873   1.8060   1.8060
    10.7653  10.7976  13.8334  16.4795  16.4795  17.2630  22.4414  22.4414

          k = 0.7000 0.0000 0.0000 (  1996 PWs)   bands (ev):

   -46.2369 -18.1914 -18.1673 -18.1673 -10.2070   0.5215   1.7748   1.7748
    10.6667  10.7741  13.9554  16.7292  16.7292  17.3701  22.1487  22.1487

          k = 0.7333 0.0000 0.0000 (  1996 PWs)   bands (ev):

   -46.2368 -18.1925 -18.1680 -18.1680 -10.1845   0.4632   1.7462   1.7462
    10.5781  10.7320  14.1027  16.9841  16.9841  17.4733  21.8391  21.8391

          k = 0.7667 0.0000 0.0000 (  2004 PWs)   bands (ev):

   -46.2368 -18.1936 -18.1687 -18.1687 -10.1643   0.4123   1.7205   1.7205
    10.4996  10.6789  14.2650  17.2435  17.2435  17.5707  21.5223  21.5223

          k = 0.8000 0.0000 0.0000 (  1996 PWs)   bands (ev):

   -46.2366 -18.1941 -18.1692 -18.1692 -10.1466   0.3688   1.6978   1.6978
    10.4313  10.6217  14.4333  17.5070  17.5070  17.6606  21.2050  21.2050

          k = 0.8333 0.0000 0.0000 (  2008 PWs)   bands (ev):

   -46.2366 -18.1950 -18.1697 -18.1697 -10.1315   0.3325   1.6783   1.6783
    10.3734  10.5656  14.5969  17.7409  17.7733  17.7733  20.8901  20.8901

          k = 0.8667 0.0000 0.0000 (  2008 PWs)   bands (ev):

   -46.2366 -18.1954 -18.1702 -18.1702 -10.1190   0.3032   1.6622   1.6622
    10.3260  10.5149  14.7482  17.8099  18.0410  18.0410  20.5813  20.5813

          k = 0.9000 0.0000 0.0000 (  2008 PWs)   bands (ev):

   -46.2365 -18.1957 -18.1705 -18.1705 -10.1092   0.2806   1.6496   1.6496
    10.2890  10.4725  14.8777  17.8657  18.3066  18.3066  20.2831  20.2831

          k = 0.9333 0.0000 0.0000 (  2012 PWs)   bands (ev):

   -46.2365 -18.1960 -18.1708 -18.1708 -10.1022   0.2645   1.6405   1.6405
    10.2625  10.4408  14.9773  17.9068  18.5613  18.5613  20.0046  20.0046

          k = 0.9667 0.0000 0.0000 (  2028 PWs)   bands (ev):

   -46.2365 -18.1965 -18.1711 -18.1711 -10.0980   0.2548   1.6350   1.6350
    10.2466  10.4211  15.0399  17.9320  18.7785  18.7785  19.7726  19.7726

          k = 1.0000 0.0000 0.0000 (  2012 PWs)   bands (ev):

   -46.2365 -18.1961 -18.1711 -18.1711 -10.0966   0.2517   1.6333   1.6333
    10.2413  10.4145  15.0621  17.9405  18.8787  18.8787  19.6679  19.6679

          k = 1.0050-0.0300 0.0300 (  2022 PWs)   bands (ev):

   -46.2365 -18.1963 -18.1714 -18.1711 -10.0960   0.2565   1.6190   1.6350
    10.2607  10.4343  15.0345  17.8230  18.8257  19.0067  19.6459  19.7015

          k = 1.0100-0.0600 0.0600 (  2011 PWs)   bands (ev):

   -46.2364 -18.1958 -18.1720 -18.1707 -10.0943   0.2710   1.5775   1.6405
    10.3103  10.5008  14.9556  17.5720  18.6836  19.2819  19.5896  19.7963

          k = 1.0150-0.0900 0.0900 (  2008 PWs)   bands (ev):

   -46.2364 -18.1952 -18.1733 -18.1703 -10.0916   0.2948   1.5115   1.6496
    10.3733  10.6265  14.8314  17.2853  18.4822  19.4118  19.6947  19.9411

          k = 1.0200-0.1200 0.1200 (  2010 PWs)   bands (ev):

   -46.2364 -18.1945 -18.1752 -18.1698 -10.0882   0.3277   1.4253   1.6621
    10.4436  10.8107  14.6710  16.9950  18.2506  19.2752  20.0541  20.1258

          k = 1.0250-0.1500 0.1500 (  2008 PWs)   bands (ev):

   -46.2364 -18.1935 -18.1773 -18.1692 -10.0845   0.3692   1.3243   1.6781
    10.5234  11.0421  14.4839  16.7123  18.0109  19.0861  20.3408  20.4475

          k = 1.0300-0.1800 0.1800 (  2007 PWs)   bands (ev):

   -46.2364 -18.1925 -18.1797 -18.1685 -10.0810   0.4186   1.2143   1.6973
    10.6146  11.3075  14.2790  16.4416  17.7802  18.8650  20.5770  20.8552

          k = 1.0350-0.2100 0.2100 (  2007 PWs)   bands (ev):

   -46.2365 -18.1913 -18.1822 -18.1677 -10.0780   0.4745   1.1019   1.7195
    10.7171  11.5927  14.0646  16.1858  17.5739  18.6199  20.8253  21.2715

          k = 1.0400-0.2400 0.2400 (  2011 PWs)   bands (ev):

   -46.2365 -18.1907 -18.1844 -18.1668 -10.0762   0.5336   0.9947   1.7445
    10.8293  11.8817  13.8481  15.9460  17.4075  18.3576  21.0748  21.6934

          k = 1.0450-0.2700 0.2700 (  1999 PWs)   bands (ev):

   -46.2365 -18.1912 -18.1848 -18.1657 -10.0762   0.5878   0.9052   1.7722
    10.9488  12.1555  13.6371  15.7238  17.3000  18.0840  21.3092  22.1177

          k = 1.0500-0.3000 0.3000 (  1994 PWs)   bands (ev):

   -46.2365 -18.1929 -18.1840 -18.1646 -10.0786   0.6127   0.8607   1.8022
    11.0711  12.3921  13.4408  15.5194  17.2691  17.8045  21.4929  22.3835

          k = 1.0483-0.3233 0.3233 (  1994 PWs)   bands (ev):

   -46.2365 -18.1945 -18.1831 -18.1637 -10.0821   0.6073   0.8618   1.8263
    11.1652  12.5361  13.3059  15.3833  17.3008  17.5713  21.5999  22.3697

          k = 1.0467-0.3467 0.3467 (  1996 PWs)   bands (ev):

   -46.2366 -18.1961 -18.1819 -18.1629 -10.0877   0.5784   0.8988   1.8516
    11.2552  12.6398  13.1841  15.2590  17.3374  17.3977  21.5855  22.4271

          k = 1.0450-0.3700 0.3700 (  1995 PWs)   bands (ev):

   -46.2366 -18.1974 -18.1806 -18.1620 -10.0955   0.5434   0.9552   1.8779
    11.3365  12.7006  13.0799  15.1469  17.1045  17.5628  21.4410  22.5578

          k = 1.0433-0.3933 0.3933 (  1999 PWs)   bands (ev):

   -46.2367 -18.1986 -18.1794 -18.1613 -10.1059   0.5124   1.0213   1.9050
    11.4025  12.7199  12.9996  15.0471  16.8739  17.7942  21.2053  22.6976

          k = 1.0417-0.4167 0.4167 (  1999 PWs)   bands (ev):

   -46.2368 -18.1995 -18.1779 -18.1605 -10.1188   0.4900   1.0931   1.9328
    11.4461  12.7016  12.9515  14.9599  16.6471  18.0867  20.9096  22.6944

          k = 1.0400-0.4400 0.4400 (  1995 PWs)   bands (ev):

   -46.2368 -18.2000 -18.1764 -18.1597 -10.1343   0.4783   1.1685   1.9611
    11.4605  12.6540  12.9410  14.8853  16.4249  18.4329  20.5733  22.5360

          k = 1.0383-0.4633 0.4633 (  1993 PWs)   bands (ev):

   -46.2369 -18.2001 -18.1749 -18.1590 -10.1525   0.4786   1.2462   1.9898
    11.4409  12.5896  12.9665  14.8233  16.2084  18.8246  20.2099  22.3536

          k = 1.0367-0.4867 0.4867 (  1999 PWs)   bands (ev):

   -46.2370 -18.2001 -18.1734 -18.1585 -10.1733   0.4914   1.3253   2.0187
    11.3871  12.5195  13.0237  14.7734  15.9983  19.2540  19.8302  22.1759

          k = 1.0350-0.5100 0.5100 (  1994 PWs)   bands (ev):

   -46.2371 -18.1994 -18.1719 -18.1578 -10.1965   0.5171   1.4051   2.0475
    11.3026  12.4515  13.1065  14.7364  15.7956  19.4399  19.7171  22.0081

          k = 1.0333-0.5333 0.5333 (  1993 PWs)   bands (ev):

   -46.2372 -18.1983 -18.1705 -18.1572 -10.2221   0.5557   1.4850   2.0763
    11.1917  12.3913  13.2079  14.7112  15.6011  19.0509  20.2024  21.8513

          k = 1.0317-0.5567 0.5567 (  1995 PWs)   bands (ev):

   -46.2373 -18.1971 -18.1690 -18.1567 -10.2498   0.6070   1.5642   2.1046
    11.0590  12.3431  13.3213  14.6973  15.4159  18.6650  20.7057  21.7078

          k = 1.0300-0.5800 0.5800 (  1997 PWs)   bands (ev):

   -46.2374 -18.1955 -18.1676 -18.1563 -10.2792   0.6706   1.6423   2.1325
    10.9093  12.3094  13.4408  14.6927  15.2420  18.2879  21.2002  21.5959

          k = 1.0283-0.6033 0.6033 (  1997 PWs)   bands (ev):

   -46.2376 -18.1935 -18.1663 -18.1558 -10.3102   0.7461   1.7186   2.1598
    10.7462  12.2916  13.5616  14.6931  15.0842  17.9239  21.3737  21.7910

          k = 1.0267-0.6267 0.6267 (  1995 PWs)   bands (ev):

   -46.2377 -18.1911 -18.1650 -18.1554 -10.3423   0.8328   1.7927   2.1862
    10.5730  12.2905  13.6787  14.6834  14.9572  17.5774  21.2663  21.8415

          k = 1.0250-0.6500 0.6500 (  1991 PWs)   bands (ev):

   -46.2378 -18.1884 -18.1637 -18.1551 -10.3751   0.9298   1.8640   2.2117
    10.3925  12.3062  13.7877  14.6287  14.8959  17.2525  21.1367  21.6926

          k = 1.0233-0.6733 0.6733 (  1992 PWs)   bands (ev):

   -46.2379 -18.1856 -18.1625 -18.1549 -10.4083   1.0360   1.9322   2.2362
    10.2067  12.3386  13.8837  14.5241  14.9045  16.9536  20.9900  21.5508

          k = 1.0217-0.6967 0.6967 (  1992 PWs)   bands (ev):

   -46.2381 -18.1825 -18.1615 -18.1547 -10.4415   1.1503   1.9967   2.2594
    10.0176  12.3872  13.9622  14.4041  14.9483  16.6857  20.8174  21.4329

          k = 1.0200-0.7200 0.7200 (  1995 PWs)   bands (ev):

   -46.2382 -18.1794 -18.1605 -18.1546 -10.4742   1.2713   2.0573   2.2813
     9.8271  12.4513  14.0181  14.2852  15.0099  16.4533  20.6121  21.3438

          k = 1.0183-0.7433 0.7433 (  1993 PWs)   bands (ev):

   -46.2383 -18.1762 -18.1595 -18.1544 -10.5060   1.3973   2.1136   2.3018
     9.6370  12.5301  14.0474  14.1725  15.0836  16.2606  20.3739  21.2825

          k = 1.0167-0.7667 0.7667 (  1995 PWs)   bands (ev):

   -46.2384 -18.1731 -18.1586 -18.1544 -10.5366   1.5265   2.1655   2.3208
     9.4491  12.6222  14.0477  14.0680  15.1659  16.1099  20.1079  21.2446

          k = 1.0150-0.7900 0.7900 (  1998 PWs)   bands (ev):

   -46.2386 -18.1702 -18.1578 -18.1543 -10.5655   1.6567   2.2127   2.3382
     9.2656  12.7259  13.9724  14.0200  15.2543  16.0002  19.8225  21.2254

          k = 1.0133-0.8133 0.8133 (  2000 PWs)   bands (ev):

   -46.2387 -18.1672 -18.1571 -18.1543 -10.5924   1.7856   2.2550   2.3539
     9.0888  12.8390  13.8863  13.9692  15.3467  15.9271  19.5273  21.2217

          k = 1.0117-0.8367 0.8367 (  1999 PWs)   bands (ev):

   -46.2388 -18.1644 -18.1564 -18.1542 -10.6169   1.9105   2.2924   2.3680
     8.9214  12.9586  13.8100  13.9028  15.4404  15.8830  19.2328  21.2296

          k = 1.0100-0.8600 0.8600 (  2003 PWs)   bands (ev):

   -46.2389 -18.1619 -18.1559 -18.1543 -10.6389   2.0285   2.3249   2.3802
     8.7663  13.0810  13.7435  13.8293  15.5323  15.8598  18.9489  21.2458

          k = 1.0083-0.8833 0.8833 (  2001 PWs)   bands (ev):

   -46.2390 -18.1597 -18.1554 -18.1542 -10.6579   2.1363   2.3523   2.3907
     8.6268  13.2016  13.6871  13.7563  15.6194  15.8502  18.6851  21.2672

          k = 1.0067-0.9067 0.9067 (  1999 PWs)   bands (ev):

   -46.2390 -18.1578 -18.1551 -18.1541 -10.6737   2.2307   2.3748   2.3993
     8.5062  13.3146  13.6409  13.6898  15.6980  15.8485  18.4508  21.2905

          k = 1.0050-0.9300 0.9300 (  2001 PWs)   bands (ev):

   -46.2391 -18.1564 -18.1547 -18.1542 -10.6863   2.3084   2.3922   2.4060
     8.4080  13.4135  13.6049  13.6343  15.7642  15.8506  18.2553  21.3121

          k = 1.0033-0.9533 0.9533 (  2007 PWs)   bands (ev):

   -46.2391 -18.1556 -18.1545 -18.1542 -10.6954   2.3665   2.4047   2.4108
     8.3351  13.4913  13.5791  13.5927  15.8147  15.8537  18.1075  21.3287

          k = 1.0017-0.9767 0.9767 (  1989 PWs)   bands (ev):

   -46.2391 -18.1544 -18.1542 -18.1541 -10.7009   2.4025   2.4122   2.4137
     8.2904  13.5412  13.5636  13.5671  15.8463  15.8562  18.0150  21.3429

          k = 1.0000-1.0000 1.0000 (  1989 PWs)   bands (ev):

   -46.2391 -18.1541 -18.1541 -18.1541 -10.7027   2.4146   2.4146   2.4146
     8.2752  13.5585  13.5585  13.5585  15.8571  15.8571  17.9835  21.3469

     highest occupied, lowest unoccupied level (ev):     2.4146    8.2752

     Writing output data file ./tmp/NaCl.save/

     init_run     :      1.23s CPU      1.26s WALL (       1 calls)
     electrons    :     93.31s CPU     93.86s WALL (       1 calls)

     Called by init_run:
     wfcinit      :      0.00s CPU      0.00s WALL (       1 calls)
     potinit      :      0.32s CPU      0.33s WALL (       1 calls)
     hinit0       :      0.82s CPU      0.83s WALL (       1 calls)

     Called by electrons:
     c_bands      :     93.31s CPU     93.86s WALL (       1 calls)
     v_of_rho     :      0.03s CPU      0.03s WALL (       1 calls)
     newd         :      0.04s CPU      0.06s WALL (       1 calls)
     PAW_pot      :      0.29s CPU      0.30s WALL (       1 calls)

     Called by c_bands:
     init_us_2    :      0.07s CPU      0.08s WALL (      91 calls)
     cegterg      :     90.35s CPU     90.85s WALL (     262 calls)

     Called by *egterg:
     cdiaghg      :      1.68s CPU      1.69s WALL (    4526 calls)
     h_psi        :     55.51s CPU     55.89s WALL (    4788 calls)
     s_psi        :      4.47s CPU      4.50s WALL (    4788 calls)
     g_psi        :      1.12s CPU      1.12s WALL (    4435 calls)

     Called by h_psi:
     h_psi:calbec :      4.28s CPU      4.31s WALL (    4788 calls)
     vloc_psi     :     46.54s CPU     46.86s WALL (    4788 calls)
     add_vuspsi   :      4.49s CPU      4.53s WALL (    4788 calls)

     General routines
     calbec       :      4.26s CPU      4.29s WALL (    4788 calls)
     fft          :      0.02s CPU      0.02s WALL (      13 calls)
     ffts         :      0.00s CPU      0.00s WALL (       1 calls)
     fftw         :     41.48s CPU     41.77s WALL (   79010 calls)
     interpolate  :      0.00s CPU      0.00s WALL (       1 calls)
     davcio       :      0.03s CPU      0.04s WALL (     182 calls)

     Parallel routines

     PWSCF        :   1m34.93s CPU   1m35.60s WALL


   This run was terminated on:  14:35: 1  12Nov2022            

=------------------------------------------------------------------------------=
   JOB DONE.
=------------------------------------------------------------------------------=
